24
Step 0
C -1.1979 -2.0687 0.0178
C 1.4395 -2.0687 0.0178
C 2.7581 0.2144 0.0178
C 1.4392 2.4989 0.0156
C -1.1975 2.4988 0.0147
C -2.5162 0.2148 0.0165
H -2.2371 -3.8689 0.0187
H 2.4782 -3.8693 0.0203
H 4.8368 0.2145 0.0190
H 2.4793 4.2988 0.0155
H -2.2374 4.2989 0.0129
H -4.5948 0.2152 0.0162
C -1.1979 -2.0687 0.0178
C 1.4395 -2.0687 0.0178
C 2.7581 0.2144 0.0178
C 1.4392 2.4989 0.0156
C -1.1975 2.4988 0.0147
C -2.5162 0.2148 0.0165
H -2.2371 -3.8689 0.0187
H 2.4782 -3.8693 0.0203
H 4.8368 0.2145 0.0190
H 2.4793 4.2988 0.0155
H -2.2374 4.2989 0.0129
H -4.5948 0.2152 0.0162
24
Step 1
C -1.1979 -2.0687 0.0178
C 1.4395 -2.0687 0.0178
C 2.7581 0.2144 0.0178
C 1.4392 2.4989 0.0156
C -1.1975 2.4988 0.0147
C -2.5162 0.2148 0.0165
H -2.2371 -3.8689 0.0187
H 2.4782 -3.8693 0.0203
H 4.8368 0.2145 0.0190
H 2.4793 4.2988 0.0155
H -2.2374 4.2989 0.0129
H -4.5948 0.2152 0.0162
C -1.1979 -2.0687 0.0178
C 1.4395 -2.0687 0.0178
C 2.7581 0.2144 0.0178
C 1.4392 2.4989 0.0156
C -1.1975 2.4988 0.0147
C -2.5162 0.2148 0.0165
H -2.2371 -3.8689 0.0187
H 2.4782 -3.8693 0.0203
H 4.8368 0.2145 0.0190
H 2.4793 4.2988 0.0155
H -2.2374 4.2989 0.0129
H -4.5948 0.2152 0.0162
24
Step 2
C -1.1981 -2.0691 0.0178
C 1.4397 -2.0691 0.0178
C 2.7585 0.2144 0.0178
C 1.4395 2.4993 0.0156
C -1.1977 2.4992 0.0147
C -2.5167 0.2148 0.0165
H -2.2327 -3.8612 0.0187
H 2.4738 -3.8615 0.0203
H 4.8279 0.2145 0.0190
H 2.4748 4.2911 0.0155
H -2.2329 4.2912 0.0129
H -4.5859 0.2152 0.0162
C -1.1981 -2.0691 0.0178
C 1.4397 -2.0691 0.0178
C 2.7585 0.2144 0.0178
C 1.4395 2.4993 0.0156
C -1.1977 2.4992 0.0147
C -2.5167 0.2148 0.0165
H -2.2327 -3.8612 0.0187
H 2.4738 -3.8615 0.0203
H 4.8279 0.2145 0.0190
H 2.4748 4.2911 0.0155
H -2.2329 4.2912 0.0129
H -4.5859 0.2152 0.0162
24
Step 3
C -1.1984 -2.0695 0.0178
C 1.4399 -2.0695 0.0178
C 2.7590 0.2144 0.0178
C 1.4397 2.4997 0.0156
C -1.1980 2.4996 0.0147
C -2.5172 0.2148 0.0165
H -2.2282 -3.8534 0.0187
H 2.4693 -3.8538 0.0203
H 4.8189 0.2145 0.0190
H 2.4703 4.2833 0.0155
H -2.2284 4.2834 0.0129
H -4.5769 0.2152 0.0162
C -1.1984 -2.0695 0.0178
C 1.4399 -2.0695 0.0178
C 2.7590 0.2144 0.0178
C 1.4397 2.4997 0.0156
C -1.1980 2.4996 0.0147
C -2.5172 0.2148 0.0165
H -2.2282 -3.8534 0.0187
H 2.4693 -3.8538 0.0203
H 4.8189 0.2145 0.0190
H 2.4703 4.2833 0.0155
H -2.2284 4.2834 0.0129
H -4.5769 0.2152 0.0162
24
Step 4
C -1.1986 -2.0699 0.0178
C 1.4402 -2.0699 0.0178
C 2.7595 0.2144 0.0178
C 1.4400 2.5002 0.0156
C -1.1982 2.5000 0.0147
C -2.5177 0.2148 0.0165
H -2.2237 -3.8456 0.0187
H 2.4648 -3.8459 0.0203
H 4.8099 0.2145 0.0190
H 2.4658 4.2755 0.0155
H -2.2239 4.2756 0.0129
H -4.5679 0.2151 0.0162
C -1.1986 -2.0699 0.0178
C 1.4402 -2.0699 0.0178
C 2.7595 0.2144 0.0178
C 1.4400 2.5002 0.0156
C -1.1982 2.5000 0.0147
C -2.5177 0.2148 0.0165
H -2.2237 -3.8456 0.0187
H 2.4648 -3.8459 0.0203
H 4.8099 0.2145 0.0190
H 2.4658 4.2755 0.0155
H -2.2239 4.2756 0.0129
H -4.5679 0.2151 0.0162
24
Step 5
C -1.1989 -2.0704 0.0178
C 1.4404 -2.0704 0.0178
C 2.7600 0.2144 0.0178
C 1.4402 2.5006 0.0156
C -1.1984 2.5004 0.0147
C -2.5181 0.2148 0.0165
H -2.2191 -3.8377 0.0187
H 2.4602 -3.8380 0.0203
H 4.8008 0.2145 0.0190
H 2.4613 4.2676 0.0155
H -2.2194 4.2677 0.0129
H -4.5588 0.2151 0.0162
C -1.1989 -2.0704 0.0178
C 1.4404 -2.0704 0.0178
C 2.7600 0.2144 0.0178
C 1.4402 2.5006 0.0156
C -1.1984 2.5004 0.0147
C -2.5181 0.2148 0.0165
H -2.2191 -3.8377 0.0187
H 2.4602 -3.8380 0.0203
H 4.8008 0.2145 0.0190
H 2.4613 4.2676 0.0155
H -2.2194 4.2677 0.0129
H -4.5588 0.2151 0.0162
24
Step 6
C -1.1991 -2.0708 0.0178
C 1.4407 -2.0708 0.0178
C 2.7605 0.2144 0.0178
C 1.4404 2.5010 0.0156
C -1.1987 2.5009 0.0147
C -2.5186 0.2148 0.0165
H -2.2147 -3.8299 0.0187
H 2.4558 -3.8303 0.0203
H 4.7919 0.2145 0.0190
H 2.4568 4.2599 0.0155
H -2.2149 4.2600 0.0129
H -4.5499 0.2151 0.0162
C -1.1991 -2.0708 0.0178
C 1.4407 -2.0708 0.0178
C 2.7605 0.2144 0.0178
C 1.4404 2.5010 0.0156
C -1.1987 2.5009 0.0147
C -2.5186 0.2148 0.0165
H -2.2147 -3.8299 0.0187
H 2.4558 -3.8303 0.0203
H 4.7919 0.2145 0.0190
H 2.4568 4.2599 0.0155
H -2.2149 4.2600 0.0129
H -4.5499 0.2151 0.0162
24
Step 7
C -1.1994 -2.0712 0.0178
C 1.4409 -2.0712 0.0178
C 2.7610 0.2144 0.0178
C 1.4407 2.5014 0.0156
C -1.1989 2.5013 0.0147
C -2.5191 0.2148 0.0165
H -2.2102 -3.8222 0.0187
H 2.4513 -3.8225 0.0203
H 4.7829 0.2145 0.0190
H 2.4523 4.2521 0.0155
H -2.2104 4.2522 0.0129
H -4.5409 0.2151 0.0162
C -1.1994 -2.0712 0.0178
C 1.4409 -2.0712 0.0178
C 2.7610 0.2144 0.0178
C 1.4407 2.5014 0.0156
C -1.1989 2.5013 0.0147
C -2.5191 0.2148 0.0165
H -2.2102 -3.8222 0.0187
H 2.4513 -3.8225 0.0203
H 4.7829 0.2145 0.0190
H 2.4523 4.2521 0.0155
H -2.2104 4.2522 0.0129
H -4.5409 0.2151 0.0162
24
Step 8
C -1.1996 -2.0716 0.0178
C 1.4412 -2.0716 0.0178
C 2.7614 0.2144 0.0178
C 1.4409 2.5019 0.0156
C -1.1992 2.5017 0.0147
C -2.5196 0.2148 0.0165
H -2.2057 -3.8143 0.0187
H 2.4468 -3.8147 0.0202
H 4.7738 0.2145 0.0190
H 2.4478 4.2443 0.0155
H -2.2059 4.2444 0.0129
H -4.5318 0.2151 0.0162
C -1.1996 -2.0716 0.0178
C 1.4412 -2.0716 0.0178
C 2.7614 0.2144 0.0178
C 1.4409 2.5019 0.0156
C -1.1992 2.5017 0.0147
C -2.5196 0.2148 0.0165
H -2.2057 -3.8143 0.0187
H 2.4468 -3.8147 0.0202
H 4.7738 0.2145 0.0190
H 2.4478 4.2443 0.0155
H -2.2059 4.2444 0.0129
H -4.5318 0.2151 0.0162
24
Step 9
C -1.1999 -2.0720 0.0178
C 1.4414 -2.0720 0.0178
C 2.7619 0.2144 0.0178
C 1.4412 2.5023 0.0156
C -1.1994 2.5021 0.0147
C -2.5201 0.2148 0.0165
H -2.2011 -3.8064 0.0187
H 2.4422 -3.8068 0.0202
H 4.7647 0.2145 0.0190
H 2.4432 4.2364 0.0155
H -2.2013 4.2365 0.0129
H -4.5227 0.2151 0.0162
C -1.1999 -2.0720 0.0178
C 1.4414 -2.0720 0.0178
C 2.7619 0.2144 0.0178
C 1.4412 2.5023 0.0156
C -1.1994 2.5021 0.0147
C -2.5201 0.2148 0.0165
H -2.2011 -3.8064 0.0187
H 2.4422 -3.8068 0.0202
H 4.7647 0.2145 0.0190
H 2.4432 4.2364 0.0155
H -2.2013 4.2365 0.0129
H -4.5227 0.2151 0.0162
24
Step 10
C -1.2001 -2.0725 0.0178
C 1.4417 -2.0725 0.0178
C 2.7624 0.2144 0.0178
C 1.4414 2.5027 0.0156
C -1.1996 2.5026 0.0147
C -2.5206 0.2148 0.0165
H -2.1965 -3.7985 0.0186
H 2.4376 -3.7989 0.0202
H 4.7556 0.2145 0.0190
H 2.4386 4.2284 0.0155
H -2.1967 4.2286 0.0129
H -4.5136 0.2151 0.0162
C -1.2001 -2.0725 0.0178
C 1.4417 -2.0725 0.0178
C 2.7624 0.2144 0.0178
C 1.4414 2.5027 0.0156
C -1.1996 2.5026 0.0147
C -2.5206 0.2148 0.0165
H -2.1965 -3.7985 0.0186
H 2.4376 -3.7989 0.0202
H 4.7556 0.2145 0.0190
H 2.4386 4.2284 0.0155
H -2.1967 4.2286 0.0129
H -4.5136 0.2151 0.0162
24
Step 11
C -1.2004 -2.0729 0.0178
C 1.4419 -2.0729 0.0178
C 2.7629 0.2144 0.0178
C 1.4416 2.5031 0.0156
C -1.1999 2.5030 0.0147
C -2.5211 0.2148 0.0165
H -2.1921 -3.7908 0.0186
H 2.4332 -3.7911 0.0202
H 4.7466 0.2145 0.0190
H 2.4341 4.2207 0.0155
H -2.1923 4.2208 0.0129
H -4.5046 0.2151 0.0162
C -1.2004 -2.0729 0.0178
C 1.4419 -2.0729 0.0178
C 2.7629 0.2144 0.0178
C 1.4416 2.5031 0.0156
C -1.1999 2.5030 0.0147
C -2.5211 0.2148 0.0165
H -2.1921 -3.7908 0.0186
H 2.4332 -3.7911 0.0202
H 4.7466 0.2145 0.0190
H 2.4341 4.2207 0.0155
H -2.1923 4.2208 0.0129
H -4.5046 0.2151 0.0162
24
Step 12
C -1.2006 -2.0733 0.0178
C 1.4422 -2.0733 0.0178
C 2.7634 0.2144 0.0178
C 1.4419 2.5036 0.0156
C -1.2001 2.5034 0.0147
C -2.5215 0.2148 0.0165
H -2.1876 -3.7830 0.0186
H 2.4287 -3.7833 0.0202
H 4.7377 0.2145 0.0190
H 2.4296 4.2130 0.0155
H -2.1878 4.2131 0.0129
H -4.4957 0.2151 0.0162
C -1.2006 -2.0733 0.0178
C 1.4422 -2.0733 0.0178
C 2.7634 0.2144 0.0178
C 1.4419 2.5036 0.0156
C -1.2001 2.5034 0.0147
C -2.5215 0.2148 0.0165
H -2.1876 -3.7830 0.0186
H 2.4287 -3.7833 0.0202
H 4.7377 0.2145 0.0190
H 2.4296 4.2130 0.0155
H -2.1878 4.2131 0.0129
H -4.4957 0.2151 0.0162
24
Step 13
C -1.2008 -2.0737 0.0178
C 1.4424 -2.0737 0.0178
C 2.7639 0.2144 0.0178
C 1.4421 2.5040 0.0156
C -1.2004 2.5038 0.0147
C -2.5220 0.2148 0.0165
H -2.1831 -3.7752 0.0186
H 2.4242 -3.7755 0.0202
H 4.7286 0.2145 0.0190
H 2.4251 4.2051 0.0155
H -2.1832 4.2052 0.0130
H -4.4866 0.2151 0.0162
C -1.2008 -2.0737 0.0178
C 1.4424 -2.0737 0.0178
C 2.7639 0.2144 0.0178
C 1.4421 2.5040 0.0156
C -1.2004 2.5038 0.0147
C -2.5220 0.2148 0.0165
H -2.1831 -3.7752 0.0186
H 2.4242 -3.7755 0.0202
H 4.7286 0.2145 0.0190
H 2.4251 4.2051 0.0155
H -2.1832 4.2052 0.0130
H -4.4866 0.2151 0.0162
24
Step 14
C -1.2011 -2.0741 0.0178
C 1.4427 -2.0741 0.0178
C 2.7644 0.2143 0.0178
C 1.4424 2.5044 0.0156
C -1.2006 2.5043 0.0147
C -2.5225 0.2148 0.0165
H -2.1785 -3.7673 0.0186
H 2.4196 -3.7676 0.0202
H 4.7195 0.2145 0.0190
H 2.4206 4.1972 0.0155
H -2.1787 4.1974 0.0130
H -4.4775 0.2151 0.0162
C -1.2011 -2.0741 0.0178
C 1.4427 -2.0741 0.0178
C 2.7644 0.2143 0.0178
C 1.4424 2.5044 0.0156
C -1.2006 2.5043 0.0147
C -2.5225 0.2148 0.0165
H -2.1785 -3.7673 0.0186
H 2.4196 -3.7676 0.0202
H 4.7195 0.2145 0.0190
H 2.4206 4.1972 0.0155
H -2.1787 4.1974 0.0130
H -4.4775 0.2151 0.0162
24
Step 15
C -1.2013 -2.0746 0.0178
C 1.4429 -2.0746 0.0178
C 2.7649 0.2143 0.0178
C 1.4426 2.5048 0.0156
C -1.2009 2.5047 0.0147
C -2.5230 0.2148 0.0165
H -2.1739 -3.7593 0.0186
H 2.4151 -3.7597 0.0202
H 4.7103 0.2145 0.0190
H 2.4160 4.1893 0.0155
H -2.1741 4.1894 0.0130
H -4.4683 0.2151 0.0162
C -1.2013 -2.0746 0.0178
C 1.4429 -2.0746 0.0178
C 2.7649 0.2143 0.0178
C 1.4426 2.5048 0.0156
C -1.2009 2.5047 0.0147
C -2.5230 0.2148 0.0165
H -2.1739 -3.7593 0.0186
H 2.4151 -3.7597 0.0202
H 4.7103 0.2145 0.0190
H 2.4160 4.1893 0.0155
H -2.1741 4.1894 0.0130
H -4.4683 0.2151 0.0162
24
Step 16
C -1.2016 -2.0750 0.0178
C 1.4431 -2.0750 0.0178
C 2.7654 0.2143 0.0178
C 1.4428 2.5053 0.0156
C -1.2011 2.5051 0.0147
C -2.5235 0.2148 0.0165
H -2.1695 -3.7516 0.0186
H 2.4106 -3.7519 0.0202
H 4.7014 0.2145 0.0190
H 2.4115 4.1816 0.0155
H -2.1696 4.1817 0.0130
H -4.4594 0.2151 0.0162
C -1.2016 -2.0750 0.0178
C 1.4431 -2.0750 0.0178
C 2.7654 0.2143 0.0178
C 1.4428 2.5053 0.0156
C -1.2011 2.5051 0.0147
C -2.5235 0.2148 0.0165
H -2.1695 -3.7516 0.0186
H 2.4106 -3.7519 0.0202
H 4.7014 0.2145 0.0190
H 2.4115 4.1816 0.0155
H -2.1696 4.1817 0.0130
H -4.4594 0.2151 0.0162
24
Step 17
C -1.2018 -2.0754 0.0178
C 1.4434 -2.0754 0.0178
C 2.7658 0.2143 0.0178
C 1.4431 2.5057 0.0156
C -1.2013 2.5055 0.0147
C -2.5240 0.2148 0.0165
H -2.1650 -3.7438 0.0186
H 2.4061 -3.7442 0.0202
H 4.6924 0.2145 0.0189
H 2.4070 4.1738 0.0155
H -2.1651 4.1739 0.0130
H -4.4504 0.2151 0.0162
C -1.2018 -2.0754 0.0178
C 1.4434 -2.0754 0.0178
C 2.7658 0.2143 0.0178
C 1.4431 2.5057 0.0156
C -1.2013 2.5055 0.0147
C -2.5240 0.2148 0.0165
H -2.1650 -3.7438 0.0186
H 2.4061 -3.7442 0.0202
H 4.6924 0.2145 0.0189
H 2.4070 4.1738 0.0155
H -2.1651 4.1739 0.0130
H -4.4504 0.2151 0.0162
24
Step 18
C -1.2021 -2.0758 0.0178
C 1.4436 -2.0758 0.0178
C 2.7663 0.2143 0.0178
C 1.4433 2.5061 0.0156
C -1.2016 2.5060 0.0147
C -2.5245 0.2148 0.0165
H -2.1605 -3.7360 0.0186
H 2.4016 -3.7363 0.0201
H 4.6834 0.2145 0.0189
H 2.4025 4.1660 0.0155
H -2.1606 4.1661 0.0130
H -4.4414 0.2151 0.0162
C -1.2021 -2.0758 0.0178
C 1.4436 -2.0758 0.0178
C 2.7663 0.2143 0.0178
C 1.4433 2.5061 0.0156
C -1.2016 2.5060 0.0147
C -2.5245 0.2148 0.0165
H -2.1605 -3.7360 0.0186
H 2.4016 -3.7363 0.0201
H 4.6834 0.2145 0.0189
H 2.4025 4.1660 0.0155
H -2.1606 4.1661 0.0130
H -4.4414 0.2151 0.0162
24
Step 19
C -1.2023 -2.0763 0.0178
C 1.4439 -2.0763 0.0178
C 2.7668 0.2143 0.0178
C 1.4436 2.5065 0.0156
C -1.2018 2.5064 0.0147
C -2.5250 0.2148 0.0165
H -2.1559 -3.7281 0.0186
H 2.3971 -3.7284 0.0201
H 4.6743 0.2144 0.0189
H 2.3979 4.1581 0.0155
H -2.1560 4.1582 0.0130
H -4.4323 0.2151 0.0162
C -1.2023 -2.0763 0.0178
C 1.4439 -2.0763 0.0178
C 2.7668 0.2143 0.0178
C 1.4436 2.5065 0.0156
C -1.2018 2.5064 0.0147
C -2.5250 0.2148 0.0165
H -2.1559 -3.7281 0.0186
H 2.3971 -3.7284 0.0201
H 4.6743 0.2144 0.0189
H 2.3979 4.1581 0.0155
H -2.1560 4.1582 0.0130
H -4.4323 0.2151 0.0162
24
Step 20
C -1.2026 -2.0767 0.0178
C 1.4441 -2.0767 0.0178
C 2.7673 0.2143 0.0178
C 1.4438 2.5070 0.0156
C -1.2021 2.5068 0.0147
C -2.5255 0.2148 0.0165
H -2.1513 -3.7201 0.0186
H 2.3925 -3.7205 0.0201
H 4.6651 0.2144 0.0189
H 2.3933 4.1501 0.0155
H -2.1514 4.1503 0.0130
H -4.4231 0.2151 0.0162
C -1.2026 -2.0767 0.0178
C 1.4441 -2.0767 0.0178
C 2.7673 0.2143 0.0178
C 1.4438 2.5070 0.0156
C -1.2021 2.5068 0.0147
C -2.5255 0.2148 0.0165
H -2.1513 -3.7201 0.0186
H 2.3925 -3.7205 0.0201
H 4.6651 0.2144 0.0189
H 2.3933 4.1501 0.0155
H -2.1514 4.1503 0.0130
H -4.4231 0.2151 0.0162
24
Step 21
C -1.2028 -2.0771 0.0178
C 1.4444 -2.0771 0.0179
C 2.7678 0.2143 0.0178
C 1.4441 2.5074 0.0156
C -1.2023 2.5072 0.0147
C -2.5259 0.2148 0.0165
H -2.1469 -3.7124 0.0186
H 2.3880 -3.7127 0.0201
H 4.6562 0.2144 0.0189
H 2.3888 4.1424 0.0155
H -2.1470 4.1425 0.0130
H -4.4142 0.2150 0.0162
C -1.2028 -2.0771 0.0178
C 1.4444 -2.0771 0.0179
C 2.7678 0.2143 0.0178
C 1.4441 2.5074 0.0156
C -1.2023 2.5072 0.0147
C -2.5259 0.2148 0.0165
H -2.1469 -3.7124 0.0186
H 2.3880 -3.7127 0.0201
H 4.6562 0.2144 0.0189
H 2.3888 4.1424 0.0155
H -2.1470 4.1425 0.0130
H -4.4142 0.2150 0.0162
24
Step 22
C -1.2031 -2.0775 0.0178
C 1.4446 -2.0775 0.0179
C 2.7683 0.2143 0.0178
C 1.4443 2.5078 0.0156
C -1.2025 2.5077 0.0147
C -2.5264 0.2148 0.0165
H -2.1424 -3.7046 0.0186
H 2.3835 -3.7050 0.0201
H 4.6472 0.2144 0.0189
H 2.3843 4.1346 0.0155
H -2.1425 4.1348 0.0130
H -4.4052 0.2150 0.0162
C -1.2031 -2.0775 0.0178
C 1.4446 -2.0775 0.0179
C 2.7683 0.2143 0.0178
C 1.4443 2.5078 0.0156
C -1.2025 2.5077 0.0147
C -2.5264 0.2148 0.0165
H -2.1424 -3.7046 0.0186
H 2.3835 -3.7050 0.0201
H 4.6472 0.2144 0.0189
H 2.3843 4.1346 0.0155
H -2.1425 4.1348 0.0130
H -4.4052 0.2150 0.0162
24
Step 23
C -1.2033 -2.0779 0.0178
C 1.4449 -2.0779 0.0179
C 2.7688 0.2143 0.0178
C 1.4445 2.5082 0.0156
C -1.2028 2.5081 0.0147
C -2.5269 0.2147 0.0165
H -2.1379 -3.6968 0.0186
H 2.3790 -3.6971 0.0201
H 4.6381 0.2144 0.0189
H 2.3798 4.1268 0.0155
H -2.1379 4.1269 0.0130
H -4.3961 0.2150 0.0162
C -1.2033 -2.0779 0.0178
C 1.4449 -2.0779 0.0179
C 2.7688 0.2143 0.0178
C 1.4445 2.5082 0.0156
C -1.2028 2.5081 0.0147
C -2.5269 0.2147 0.0165
H -2.1379 -3.6968 0.0186
H 2.3790 -3.6971 0.0201
H 4.6381 0.2144 0.0189
H 2.3798 4.1268 0.0155
H -2.1379 4.1269 0.0130
H -4.3961 0.2150 0.0162
24
Step 24
C -1.2036 -2.0784 0.0178
C 1.4451 -2.0784 0.0179
C 2.7693 0.2143 0.0178
C 1.4448 2.5087 0.0156
C -1.2030 2.5085 0.0147
C -2.5274 0.2147 0.0165
H -2.1333 -3.6889 0.0186
H 2.3745 -3.6892 0.0201
H 4.6290 0.2144 0.0189
H 2.3752 4.1189 0.0155
H -2.1334 4.1190 0.0130
H -4.3870 0.2150 0.0162
C -1.2036 -2.0784 0.0178
C 1.4451 -2.0784 0.0179
C 2.7693 0.2143 0.0178
C 1.4448 2.5087 0.0156
C -1.2030 2.5085 0.0147
C -2.5274 0.2147 0.0165
H -2.1333 -3.6889 0.0186
H 2.3745 -3.6892 0.0201
H 4.6290 0.2144 0.0189
H 2.3752 4.1189 0.0155
H -2.1334 4.1190 0.0130
H -4.3870 0.2150 0.0162
24
Step 25
C -1.2038 -2.0788 0.0178
C 1.4454 -2.0788 0.0179
C 2.7698 0.2143 0.0178
C 1.4450 2.5091 0.0156
C -1.2033 2.5089 0.0147
C -2.5279 0.2147 0.0165
H -2.1287 -3.6809 0.0186
H 2.3699 -3.6813 0.0201
H 4.6198 0.2144 0.0189
H 2.3706 4.1110 0.0155
H -2.1288 4.1111 0.0130
H -4.3778 0.2150 0.0162
C -1.2038 -2.0788 0.0178
C 1.4454 -2.0788 0.0179
C 2.7698 0.2143 0.0178
C 1.4450 2.5091 0.0156
C -1.2033 2.5089 0.0147
C -2.5279 0.2147 0.0165
H -2.1287 -3.6809 0.0186
H 2.3699 -3.6813 0.0201
H 4.6198 0.2144 0.0189
H 2.3706 4.1110 0.0155
H -2.1288 4.1111 0.0130
H -4.3778 0.2150 0.0162
24
Step 26
C -1.2041 -2.0792 0.0178
C 1.4456 -2.0792 0.0179
C 2.7702 0.2143 0.0178
C 1.4453 2.5095 0.0156
C -1.2035 2.5094 0.0147
C -2.5284 0.2147 0.0165
H -2.1243 -3.6732 0.0186
H 2.3654 -3.6735 0.0201
H 4.6109 0.2144 0.0189
H 2.3662 4.1033 0.0155
H -2.1243 4.1034 0.0131
H -4.3689 0.2150 0.0162
C -1.2041 -2.0792 0.0178
C 1.4456 -2.0792 0.0179
C 2.7702 0.2143 0.0178
C 1.4453 2.5095 0.0156
C -1.2035 2.5094 0.0147
C -2.5284 0.2147 0.0165
H -2.1243 -3.6732 0.0186
H 2.3654 -3.6735 0.0201
H 4.6109 0.2144 0.0189
H 2.3662 4.1033 0.0155
H -2.1243 4.1034 0.0131
H -4.3689 0.2150 0.0162
24
Step 27
C -1.2043 -2.0796 0.0178
C 1.4459 -2.0796 0.0179
C 2.7707 0.2143 0.0178
C 1.4455 2.5099 0.0156
C -1.2038 2.5098 0.0147
C -2.5289 0.2147 0.0165
H -2.1198 -3.6654 0.0186
H 2.3609 -3.6658 0.0200
H 4.6020 0.2144 0.0189
H 2.3617 4.0955 0.0155
H -2.1198 4.0956 0.0131
H -4.3599 0.2150 0.0162
C -1.2043 -2.0796 0.0178
C 1.4459 -2.0796 0.0179
C 2.7707 0.2143 0.0178
C 1.4455 2.5099 0.0156
C -1.2038 2.5098 0.0147
C -2.5289 0.2147 0.0165
H -2.1198 -3.6654 0.0186
H 2.3609 -3.6658 0.0200
H 4.6020 0.2144 0.0189
H 2.3617 4.0955 0.0155
H -2.1198 4.0956 0.0131
H -4.3599 0.2150 0.0162
24
Step 28
C -1.2046 -2.0801 0.0178
C 1.4461 -2.0801 0.0179
C 2.7712 0.2143 0.0178
C 1.4457 2.5104 0.0156
C -1.2040 2.5102 0.0147
C -2.5294 0.2147 0.0165
H -2.1153 -3.6576 0.0186
H 2.3564 -3.6579 0.0200
H 4.5929 0.2144 0.0189
H 2.3571 4.0876 0.0155
H -2.1153 4.0878 0.0131
H -4.3509 0.2150 0.0162
C -1.2046 -2.0801 0.0178
C 1.4461 -2.0801 0.0179
C 2.7712 0.2143 0.0178
C 1.4457 2.5104 0.0156
C -1.2040 2.5102 0.0147
C -2.5294 0.2147 0.0165
H -2.1153 -3.6576 0.0186
H 2.3564 -3.6579 0.0200
H 4.5929 0.2144 0.0189
H 2.3571 4.0876 0.0155
H -2.1153 4.0878 0.0131
H -4.3509 0.2150 0.0162
24
Step 29
C -1.2048 -2.0805 0.0178
C 1.4464 -2.0805 0.0179
C 2.7717 0.2143 0.0178
C 1.4460 2.5108 0.0156
C -1.2042 2.5106 0.0147
C -2.5299 0.2147 0.0165
H -2.1107 -3.6497 0.0186
H 2.3519 -3.6500 0.0200
H 4.5838 0.2144 0.0189
H 2.3526 4.0798 0.0155
H -2.1107 4.0799 0.0131
H -4.3418 0.2150 0.0162
C -1.2048 -2.0805 0.0178
C 1.4464 -2.0805 0.0179
C 2.7717 0.2143 0.0178
C 1.4460 2.5108 0.0156
C -1.2042 2.5106 0.0147
C -2.5299 0.2147 0.0165
H -2.1107 -3.6497 0.0186
H 2.3519 -3.6500 0.0200
H 4.5838 0.2144 0.0189
H 2.3526 4.0798 0.0155
H -2.1107 4.0799 0.0131
H -4.3418 0.2150 0.0162
24
Step 30
C -1.2051 -2.0809 0.0178
C 1.4466 -2.0809 0.0179
C 2.7722 0.2143 0.0178
C 1.4462 2.5112 0.0156
C -1.2045 2.5111 0.0147
C -2.5304 0.2147 0.0165
H -2.1061 -3.6417 0.0186
H 2.3473 -3.6420 0.0200
H 4.5746 0.2144 0.0189
H 2.3480 4.0718 0.0155
H -2.1061 4.0719 0.0131
H -4.3326 0.2150 0.0162
C -1.2051 -2.0809 0.0178
C 1.4466 -2.0809 0.0179
C 2.7722 0.2143 0.0178
C 1.4462 2.5112 0.0156
C -1.2045 2.5111 0.0147
C -2.5304 0.2147 0.0165
H -2.1061 -3.6417 0.0186
H 2.3473 -3.6420 0.0200
H 4.5746 0.2144 0.0189
H 2.3480 4.0718 0.0155
H -2.1061 4.0719 0.0131
H -4.3326 0.2150 0.0162
24
Step 31
C -1.2053 -2.0813 0.0178
C 1.4469 -2.0813 0.0179
C 2.7727 0.2143 0.0178
C 1.4465 2.5116 0.0156
C -1.2047 2.5115 0.0147
C -2.5308 0.2147 0.0165
H -2.1017 -3.6340 0.0186
H 2.3428 -3.6343 0.0200
H 4.5657 0.2144 0.0189
H 2.3435 4.0641 0.0155
H -2.1017 4.0642 0.0131
H -4.3237 0.2150 0.0162
C -1.2053 -2.0813 0.0178
C 1.4469 -2.0813 0.0179
C 2.7727 0.2143 0.0178
C 1.4465 2.5116 0.0156
C -1.2047 2.5115 0.0147
C -2.5308 0.2147 0.0165
H -2.1017 -3.6340 0.0186
H 2.3428 -3.6343 0.0200
H 4.5657 0.2144 0.0189
H 2.3435 4.0641 0.0155
H -2.1017 4.0642 0.0131
H -4.3237 0.2150 0.0162
24
Step 32
C -1.2055 -2.0817 0.0178
C 1.4471 -2.0817 0.0179
C 2.7732 0.2143 0.0178
C 1.4467 2.5121 0.0156
C -1.2050 2.5119 0.0147
C -2.5313 0.2147 0.0165
H -2.0972 -3.6262 0.0186
H 2.3384 -3.6265 0.0200
H 4.5567 0.2144 0.0189
H 2.3390 4.0563 0.0155
H -2.0972 4.0564 0.0131
H -4.3147 0.2150 0.0162
C -1.2055 -2.0817 0.0178
C 1.4471 -2.0817 0.0179
C 2.7732 0.2143 0.0178
C 1.4467 2.5121 0.0156
C -1.2050 2.5119 0.0147
C -2.5313 0.2147 0.0165
H -2.0972 -3.6262 0.0186
H 2.3384 -3.6265 0.0200
H 4.5567 0.2144 0.0189
H 2.3390 4.0563 0.0155
H -2.0972 4.0564 0.0131
H -4.3147 0.2150 0.0162
24
Step 33
C -1.2058 -2.0822 0.0178
C 1.4474 -2.0822 0.0179
C 2.7737 0.2143 0.0178
C 1.4470 2.5125 0.0156
C -1.2052 2.5123 0.0147
C -2.5318 0.2147 0.0165
H -2.0927 -3.6184 0.0186
H 2.3338 -3.6187 0.0200
H 4.5476 0.2144 0.0189
H 2.3345 4.0485 0.0155
H -2.0926 4.0486 0.0131
H -4.3056 0.2150 0.0162
C -1.2058 -2.0822 0.0178
C 1.4474 -2.0822 0.0179
C 2.7737 0.2143 0.0178
C 1.4470 2.5125 0.0156
C -1.2052 2.5123 0.0147
C -2.5318 0.2147 0.0165
H -2.0927 -3.6184 0.0186
H 2.3338 -3.6187 0.0200
H 4.5476 0.2144 0.0189
H 2.3345 4.0485 0.0155
H -2.0926 4.0486 0.0131
H -4.3056 0.2150 0.0162
24
Step 34
C -1.2060 -2.0826 0.0178
C 1.4476 -2.0826 0.0179
C 2.7742 0.2143 0.0178
C 1.4472 2.5129 0.0156
C -1.2055 2.5128 0.0146
C -2.5323 0.2147 0.0165
H -2.0881 -3.6105 0.0186
H 2.3293 -3.6108 0.0200
H 4.5385 0.2144 0.0189
H 2.3299 4.0406 0.0155
H -2.0881 4.0407 0.0131
H -4.2965 0.2150 0.0162
C -1.2060 -2.0826 0.0178
C 1.4476 -2.0826 0.0179
C 2.7742 0.2143 0.0178
C 1.4472 2.5129 0.0156
C -1.2055 2.5128 0.0146
C -2.5323 0.2147 0.0165
H -2.0881 -3.6105 0.0186
H 2.3293 -3.6108 0.0200
H 4.5385 0.2144 0.0189
H 2.3299 4.0406 0.0155
H -2.0881 4.0407 0.0131
H -4.2965 0.2150 0.0162
24
Step 35
C -1.2063 -2.0830 0.0178
C 1.4479 -2.0830 0.0179
C 2.7747 0.2143 0.0178
C 1.4475 2.5134 0.0156
C -1.2057 2.5132 0.0146
C -2.5328 0.2147 0.0165
H -2.0835 -3.6025 0.0186
H 2.3247 -3.6028 0.0200
H 4.5293 0.2144 0.0188
H 2.3253 4.0326 0.0155
H -2.0835 4.0328 0.0131
H -4.2873 0.2150 0.0163
C -1.2063 -2.0830 0.0178
C 1.4479 -2.0830 0.0179
C 2.7747 0.2143 0.0178
C 1.4475 2.5134 0.0156
C -1.2057 2.5132 0.0146
C -2.5328 0.2147 0.0165
H -2.0835 -3.6025 0.0186
H 2.3247 -3.6028 0.0200
H 4.5293 0.2144 0.0188
H 2.3253 4.0326 0.0155
H -2.0835 4.0328 0.0131
H -4.2873 0.2150 0.0163
24
Step 36
C -1.2065 -2.0834 0.0178
C 1.4481 -2.0834 0.0179
C 2.7752 0.2143 0.0178
C 1.4477 2.5138 0.0156
C -1.2059 2.5136 0.0146
C -2.5333 0.2147 0.0165
H -2.0791 -3.5948 0.0186
H 2.3202 -3.5951 0.0200
H 4.5204 0.2144 0.0188
H 2.3208 4.0249 0.0155
H -2.0790 4.0250 0.0131
H -4.2784 0.2150 0.0163
C -1.2065 -2.0834 0.0178
C 1.4481 -2.0834 0.0179
C 2.7752 0.2143 0.0178
C 1.4477 2.5138 0.0156
C -1.2059 2.5136 0.0146
C -2.5333 0.2147 0.0165
H -2.0791 -3.5948 0.0186
H 2.3202 -3.5951 0.0200
H 4.5204 0.2144 0.0188
H 2.3208 4.0249 0.0155
H -2.0790 4.0250 0.0131
H -4.2784 0.2150 0.0163
24
Step 37
C -1.2068 -2.0839 0.0178
C 1.4483 -2.0839 0.0179
C 2.7756 0.2143 0.0178
C 1.4479 2.5142 0.0156
C -1.2062 2.5140 0.0146
C -2.5338 0.2147 0.0165
H -2.0746 -3.5870 0.0185
H 2.3158 -3.5873 0.0199
H 4.5114 0.2143 0.0188
H 2.3163 4.0171 0.0155
H -2.0745 4.0173 0.0131
H -4.2694 0.2150 0.0163
C -1.2068 -2.0839 0.0178
C 1.4483 -2.0839 0.0179
C 2.7756 0.2143 0.0178
C 1.4479 2.5142 0.0156
C -1.2062 2.5140 0.0146
C -2.5338 0.2147 0.0165
H -2.0746 -3.5870 0.0185
H 2.3158 -3.5873 0.0199
H 4.5114 0.2143 0.0188
H 2.3163 4.0171 0.0155
H -2.0745 4.0173 0.0131
H -4.2694 0.2150 0.0163
24
Step 38
C -1.2070 -2.0843 0.0178
C 1.4486 -2.0843 0.0179
C 2.7761 0.2143 0.0178
C 1.4482 2.5146 0.0156
C -1.2064 2.5145 0.0146
C -2.5343 0.2147 0.0165
H -2.0700 -3.5792 0.0185
H 2.3112 -3.5795 0.0199
H 4.5024 0.2143 0.0188
H 2.3118 4.0093 0.0155
H -2.0700 4.0094 0.0132
H -4.2604 0.2150 0.0163
C -1.2070 -2.0843 0.0178
C 1.4486 -2.0843 0.0179
C 2.7761 0.2143 0.0178
C 1.4482 2.5146 0.0156
C -1.2064 2.5145 0.0146
C -2.5343 0.2147 0.0165
H -2.0700 -3.5792 0.0185
H 2.3112 -3.5795 0.0199
H 4.5024 0.2143 0.0188
H 2.3118 4.0093 0.0155
H -2.0700 4.0094 0.0132
H -4.2604 0.2150 0.0163
24
Step 39
C -1.2073 -2.0847 0.0178
C 1.4488 -2.0847 0.0179
C 2.7766 0.2143 0.0178
C 1.4484 2.5151 0.0156
C -1.2067 2.5149 0.0146
C -2.5348 0.2147 0.0165
H -2.0655 -3.5713 0.0185
H 2.3067 -3.5716 0.0199
H 4.4933 0.2143 0.0188
H 2.3072 4.0014 0.0155
H -2.0654 4.0015 0.0132
H -4.2512 0.2149 0.0163
C -1.2073 -2.0847 0.0178
C 1.4488 -2.0847 0.0179
C 2.7766 0.2143 0.0178
C 1.4484 2.5151 0.0156
C -1.2067 2.5149 0.0146
C -2.5348 0.2147 0.0165
H -2.0655 -3.5713 0.0185
H 2.3067 -3.5716 0.0199
H 4.4933 0.2143 0.0188
H 2.3072 4.0014 0.0155
H -2.0654 4.0015 0.0132
H -4.2512 0.2149 0.0163
24
Step 40
C -1.2075 -2.0851 0.0178
C 1.4491 -2.0851 0.0179
C 2.7771 0.2143 0.0178
C 1.4487 2.5155 0.0156
C -1.2069 2.5153 0.0146
C -2.5353 0.2147 0.0165
H -2.0609 -3.5633 0.0185
H 2.3021 -3.5636 0.0199
H 4.4841 0.2143 0.0188
H 2.3026 3.9935 0.0155
H -2.0608 3.9936 0.0132
H -4.2421 0.2149 0.0163
C -1.2075 -2.0851 0.0178
C 1.4491 -2.0851 0.0179
C 2.7771 0.2143 0.0178
C 1.4487 2.5155 0.0156
C -1.2069 2.5153 0.0146
C -2.5353 0.2147 0.0165
H -2.0609 -3.5633 0.0185
H 2.3021 -3.5636 0.0199
H 4.4841 0.2143 0.0188
H 2.3026 3.9935 0.0155
H -2.0608 3.9936 0.0132
H -4.2421 0.2149 0.0163
24
Step 41
C -1.2078 -2.0856 0.0178
C 1.4493 -2.0856 0.0179
C 2.7776 0.2143 0.0178
C 1.4489 2.5159 0.0156
C -1.2072 2.5158 0.0146
C -2.5358 0.2147 0.0165
H -2.0564 -3.5556 0.0185
H 2.2977 -3.5559 0.0199
H 4.4752 0.2143 0.0188
H 2.2982 3.9857 0.0155
H -2.0564 3.9859 0.0132
H -4.2331 0.2149 0.0163
C -1.2078 -2.0856 0.0178
C 1.4493 -2.0856 0.0179
C 2.7776 0.2143 0.0178
C 1.4489 2.5159 0.0156
C -1.2072 2.5158 0.0146
C -2.5358 0.2147 0.0165
H -2.0564 -3.5556 0.0185
H 2.2977 -3.5559 0.0199
H 4.4752 0.2143 0.0188
H 2.2982 3.9857 0.0155
H -2.0564 3.9859 0.0132
H -4.2331 0.2149 0.0163
24
Step 42
C -1.2080 -2.0860 0.0178
C 1.4496 -2.0860 0.0179
C 2.7781 0.2143 0.0178
C 1.4492 2.5163 0.0156
C -1.2074 2.5162 0.0146
C -2.5363 0.2147 0.0165
H -2.0520 -3.5478 0.0185
H 2.2932 -3.5481 0.0199
H 4.4662 0.2143 0.0188
H 2.2937 3.9780 0.0155
H -2.0519 3.9781 0.0132
H -4.2242 0.2149 0.0163
C -1.2080 -2.0860 0.0178
C 1.4496 -2.0860 0.0179
C 2.7781 0.2143 0.0178
C 1.4492 2.5163 0.0156
C -1.2074 2.5162 0.0146
C -2.5363 0.2147 0.0165
H -2.0520 -3.5478 0.0185
H 2.2932 -3.5481 0.0199
H 4.4662 0.2143 0.0188
H 2.2937 3.9780 0.0155
H -2.0519 3.9781 0.0132
H -4.2242 0.2149 0.0163
24
Step 43
C -1.2083 -2.0864 0.0178
C 1.4498 -2.0864 0.0179
C 2.7786 0.2142 0.0178
C 1.4494 2.5168 0.0156
C -1.2076 2.5166 0.0146
C -2.5367 0.2147 0.0165
H -2.0474 -3.5400 0.0185
H 2.2887 -3.5403 0.0199
H 4.4571 0.2143 0.0188
H 2.2892 3.9701 0.0155
H -2.0473 3.9703 0.0132
H -4.2151 0.2149 0.0163
C -1.2083 -2.0864 0.0178
C 1.4498 -2.0864 0.0179
C 2.7786 0.2142 0.0178
C 1.4494 2.5168 0.0156
C -1.2076 2.5166 0.0146
C -2.5367 0.2147 0.0165
H -2.0474 -3.5400 0.0185
H 2.2887 -3.5403 0.0199
H 4.4571 0.2143 0.0188
H 2.2892 3.9701 0.0155
H -2.0473 3.9703 0.0132
H -4.2151 0.2149 0.0163
24
Step 44
C -1.2085 -2.0868 0.0178
C 1.4501 -2.0868 0.0179
C 2.7791 0.2142 0.0178
C 1.4496 2.5172 0.0156
C -1.2079 2.5170 0.0146
C -2.5372 0.2147 0.0165
H -2.0429 -3.5321 0.0185
H 2.2841 -3.5324 0.0199
H 4.4480 0.2143 0.0188
H 2.2846 3.9622 0.0155
H -2.0428 3.9624 0.0132
H -4.2060 0.2149 0.0163
C -1.2085 -2.0868 0.0178
C 1.4501 -2.0868 0.0179
C 2.7791 0.2142 0.0178
C 1.4496 2.5172 0.0156
C -1.2079 2.5170 0.0146
C -2.5372 0.2147 0.0165
H -2.0429 -3.5321 0.0185
H 2.2841 -3.5324 0.0199
H 4.4480 0.2143 0.0188
H 2.2846 3.9622 0.0155
H -2.0428 3.9624 0.0132
H -4.2060 0.2149 0.0163
24
Step 45
C -1.2088 -2.0873 0.0178
C 1.4503 -2.0873 0.0179
C 2.7796 0.2142 0.0178
C 1.4499 2.5176 0.0156
C -1.2081 2.5175 0.0146
C -2.5377 0.2147 0.0165
H -2.0383 -3.5241 0.0185
H 2.2795 -3.5244 0.0199
H 4.4388 0.2143 0.0188
H 2.2800 3.9543 0.0155
H -2.0382 3.9544 0.0132
H -4.1968 0.2149 0.0163
C -1.2088 -2.0873 0.0178
C 1.4503 -2.0873 0.0179
C 2.7796 0.2142 0.0178
C 1.4499 2.5176 0.0156
C -1.2081 2.5175 0.0146
C -2.5377 0.2147 0.0165
H -2.0383 -3.5241 0.0185
H 2.2795 -3.5244 0.0199
H 4.4388 0.2143 0.0188
H 2.2800 3.9543 0.0155
H -2.0382 3.9544 0.0132
H -4.1968 0.2149 0.0163
24
Step 46
C -1.2090 -2.0877 0.0178
C 1.4506 -2.0877 0.0179
C 2.7801 0.2142 0.0178
C 1.4501 2.5181 0.0156
C -1.2084 2.5179 0.0146
C -2.5382 0.2147 0.0165
H -2.0338 -3.5164 0.0185
H 2.2751 -3.5167 0.0199
H 4.4299 0.2143 0.0188
H 2.2755 3.9466 0.0155
H -2.0337 3.9467 0.0132
H -4.1879 0.2149 0.0163
C -1.2090 -2.0877 0.0178
C 1.4506 -2.0877 0.0179
C 2.7801 0.2142 0.0178
C 1.4501 2.5181 0.0156
C -1.2084 2.5179 0.0146
C -2.5382 0.2147 0.0165
H -2.0338 -3.5164 0.0185
H 2.2751 -3.5167 0.0199
H 4.4299 0.2143 0.0188
H 2.2755 3.9466 0.0155
H -2.0337 3.9467 0.0132
H -4.1879 0.2149 0.0163
24
Step 47
C -1.2093 -2.0881 0.0178
C 1.4508 -2.0881 0.0179
C 2.7806 0.2142 0.0178
C 1.4504 2.5185 0.0156
C -1.2086 2.5183 0.0146
C -2.5387 0.2147 0.0165
H -2.0294 -3.5086 0.0185
H 2.2706 -3.5089 0.0198
H 4.4209 0.2143 0.0188
H 2.2710 3.9388 0.0155
H -2.0292 3.9389 0.0132
H -4.1789 0.2149 0.0163
C -1.2093 -2.0881 0.0178
C 1.4508 -2.0881 0.0179
C 2.7806 0.2142 0.0178
C 1.4504 2.5185 0.0156
C -1.2086 2.5183 0.0146
C -2.5387 0.2147 0.0165
H -2.0294 -3.5086 0.0185
H 2.2706 -3.5089 0.0198
H 4.4209 0.2143 0.0188
H 2.2710 3.9388 0.0155
H -2.0292 3.9389 0.0132
H -4.1789 0.2149 0.0163
24
Step 48
C -1.2095 -2.0885 0.0178
C 1.4511 -2.0885 0.0179
C 2.7811 0.2142 0.0178
C 1.4506 2.5189 0.0156
C -1.2089 2.5188 0.0146
C -2.5392 0.2147 0.0165
H -2.0248 -3.5008 0.0185
H 2.2661 -3.5011 0.0198
H 4.4119 0.2143 0.0188
H 2.2665 3.9310 0.0155
H -2.0247 3.9311 0.0132
H -4.1699 0.2149 0.0163
C -1.2095 -2.0885 0.0178
C 1.4511 -2.0885 0.0179
C 2.7811 0.2142 0.0178
C 1.4506 2.5189 0.0156
C -1.2089 2.5188 0.0146
C -2.5392 0.2147 0.0165
H -2.0248 -3.5008 0.0185
H 2.2661 -3.5011 0.0198
H 4.4119 0.2143 0.0188
H 2.2665 3.9310 0.0155
H -2.0247 3.9311 0.0132
H -4.1699 0.2149 0.0163
24
Step 49
C -1.2098 -2.0890 0.0178
C 1.4513 -2.0890 0.0179
C 2.7816 0.2142 0.0178
C 1.4509 2.5193 0.0156
C -1.2091 2.5192 0.0146
C -2.5397 0.2147 0.0165
H -2.0203 -3.4929 0.0185
H 2.2615 -3.4932 0.0198
H 4.4028 0.2143 0.0188
H 2.2619 3.9231 0.0155
H -2.0201 3.9232 0.0132
H -4.1607 0.2149 0.0163
C -1.2098 -2.0890 0.0178
C 1.4513 -2.0890 0.0179
C 2.7816 0.2142 0.0178
C 1.4509 2.5193 0.0156
C -1.2091 2.5192 0.0146
C -2.5397 0.2147 0.0165
H -2.0203 -3.4929 0.0185
H 2.2615 -3.4932 0.0198
H 4.4028 0.2143 0.0188
H 2.2619 3.9231 0.0155
H -2.0201 3.9232 0.0132
H -4.1607 0.2149 0.0163
24
Step 50
C -1.2100 -2.0894 0.0178
C 1.4516 -2.0894 0.0179
C 2.7821 0.2142 0.0178
C 1.4511 2.5198 0.0156
C -1.2094 2.5196 0.0146
C -2.5402 0.2147 0.0165
H -2.0157 -3.4849 0.0185
H 2.2569 -3.4852 0.0198
H 4.3936 0.2143 0.0188
H 2.2573 3.9151 0.0155
H -2.0155 3.9153 0.0132
H -4.1516 0.2149 0.0163
C -1.2100 -2.0894 0.0178
C 1.4516 -2.0894 0.0179
C 2.7821 0.2142 0.0178
C 1.4511 2.5198 0.0156
C -1.2094 2.5196 0.0146
C -2.5402 0.2147 0.0165
H -2.0157 -3.4849 0.0185
H 2.2569 -3.4852 0.0198
H 4.3936 0.2143 0.0188
H 2.2573 3.9151 0.0155
H -2.0155 3.9153 0.0132
H -4.1516 0.2149 0.0163
24
Step 51
C -1.2103 -2.0898 0.0178
C 1.4518 -2.0898 0.0179
C 2.7826 0.2142 0.0178
C 1.4514 2.5202 0.0156
C -1.2096 2.5201 0.0146
C -2.5407 0.2147 0.0165
H -2.0112 -3.4772 0.0185
H 2.2525 -3.4775 0.0198
H 4.3847 0.2143 0.0188
H 2.2529 3.9074 0.0155
H -2.0111 3.9075 0.0133