60
Step 0
H 0.0000 0.0000 0.0000
H 0.0000 0.0000 2.2684
H 0.0000 0.0000 0.0000
H 0.0000 0.0000 2.2684
H 0.0000 0.0000 0.0000
H 0.0000 0.0000 2.2684
H 0.0000 0.0000 0.0000
H 0.0000 0.0000 2.2684
H 0.0000 0.0000 0.0000
H 0.0000 0.0000 2.2684
H 0.0000 0.0000 0.0000
H 0.0000 0.0000 2.2684
H 0.0000 0.0000 0.0000
H 0.0000 0.0000 2.2684
H 0.0000 0.0000 0.0000
H 0.0000 0.0000 2.2684
H 0.0000 0.0000 0.0000
H 0.0000 0.0000 2.2684
H 0.0000 0.0000 0.0000
H 0.0000 0.0000 2.2684
H 0.0000 0.0000 0.0000
H 0.0000 0.0000 2.2684
H 0.0000 0.0000 0.0000
H 0.0000 0.0000 2.2684
H 0.0000 0.0000 0.0000
H 0.0000 0.0000 2.2684
H 0.0000 0.0000 0.0000
H 0.0000 0.0000 2.2684
H 0.0000 0.0000 0.0000
H 0.0000 0.0000 2.2684
H 0.0000 0.0000 0.0000
H 0.0000 0.0000 2.2684
H 0.0000 0.0000 0.0000
H 0.0000 0.0000 2.2684
H 0.0000 0.0000 0.0000
H 0.0000 0.0000 2.2684
H 0.0000 0.0000 0.0000
H 0.0000 0.0000 2.2684
H 0.0000 0.0000 0.0000
H 0.0000 0.0000 2.2684
H 0.0000 0.0000 0.0000
H 0.0000 0.0000 2.2684
H 0.0000 0.0000 0.0000
H 0.0000 0.0000 2.2684
H 0.0000 0.0000 0.0000
H 0.0000 0.0000 2.2684
H 0.0000 0.0000 0.0000
H 0.0000 0.0000 2.2684
H 0.0000 0.0000 0.0000
H 0.0000 0.0000 2.2684
H 0.0000 0.0000 0.0000
H 0.0000 0.0000 2.2684
H 0.0000 0.0000 0.0000
H 0.0000 0.0000 2.2684
H 0.0000 0.0000 0.0000
H 0.0000 0.0000 2.2684
H 0.0000 0.0000 0.0000
H 0.0000 0.0000 2.2684
H 0.0000 0.0000 0.0000
H 0.0000 0.0000 2.2684
60
Step 1
H 0.0000 0.0000 0.0000
H 0.0000 0.0000 2.2684
H 0.0000 0.0000 0.0000
H 0.0000 0.0000 2.2684
H 0.0000 0.0000 0.0000
H 0.0000 0.0000 2.2684
H 0.0000 0.0000 0.0000
H 0.0000 0.0000 2.2684
H 0.0000 0.0000 0.0000
H 0.0000 0.0000 2.2684
H 0.0000 0.0000 0.0000
H 0.0000 0.0000 2.2684
H 0.0000 0.0000 0.0000
H 0.0000 0.0000 2.2684
H 0.0000 0.0000 0.0000
H 0.0000 0.0000 2.2684
H 0.0000 0.0000 0.0000
H 0.0000 0.0000 2.2684
H 0.0000 0.0000 0.0000
H 0.0000 0.0000 2.2684
H 0.0000 0.0000 0.0000
H 0.0000 0.0000 2.2684
H 0.0000 0.0000 0.0000
H 0.0000 0.0000 2.2684
H 0.0000 0.0000 0.0000
H 0.0000 0.0000 2.2684
H 0.0000 0.0000 0.0000
H 0.0000 0.0000 2.2684
H 0.0000 0.0000 0.0000
H 0.0000 0.0000 2.2684
H 0.0000 0.0000 0.0000
H 0.0000 0.0000 2.2684
H 0.0000 0.0000 0.0000
H 0.0000 0.0000 2.2684
H 0.0000 0.0000 0.0000
H 0.0000 0.0000 2.2684
H 0.0000 0.0000 0.0000
H 0.0000 0.0000 2.2684
H 0.0000 0.0000 0.0000
H 0.0000 0.0000 2.2684
H 0.0000 0.0000 0.0000
H 0.0000 0.0000 2.2684
H 0.0000 0.0000 0.0000
H 0.0000 0.0000 2.2684
H 0.0000 0.0000 0.0000
H 0.0000 0.0000 2.2684
H 0.0000 0.0000 0.0000
H 0.0000 0.0000 2.2684
H 0.0000 0.0000 0.0000
H 0.0000 0.0000 2.2684
H 0.0000 0.0000 0.0000
H 0.0000 0.0000 2.2684
H 0.0000 0.0000 0.0000
H 0.0000 0.0000 2.2684
H 0.0000 0.0000 0.0000
H 0.0000 0.0000 2.2684
H 0.0000 0.0000 0.0000
H 0.0000 0.0000 2.2684
H 0.0000 0.0000 0.0000
H 0.0000 0.0000 2.2684
60
Step 2
H -0.0000 -0.0001 -0.0000
H -0.0000 0.0003 2.2681
H 0.0007 0.0002 0.0001
H 0.0003 -0.0002 2.2685
H -0.0002 0.0005 0.0000
H 0.0002 0.0002 2.2688
H 0.0002 -0.0002 -0.0004
H 0.0004 -0.0002 2.2684
H -0.0001 -0.0000 -0.0000
H 0.0005 -0.0001 2.2681
H 0.0000 -0.0001 -0.0002
H -0.0003 -0.0000 2.2686
H 0.0001 0.0004 0.0001
H -0.0004 0.0001 2.2682
H -0.0003 0.0000 0.0002
H -0.0002 0.0003 2.2683
H 0.0001 -0.0002 -0.0001
H -0.0001 -0.0001 2.2685
H 0.0000 0.0003 0.0001
H 0.0006 -0.0002 2.2686
H -0.0001 0.0000 0.0006
H -0.0003 -0.0003 2.2686
H 0.0001 0.0001 -0.0002
H 0.0000 0.0003 2.2681
H -0.0002 -0.0001 0.0001
H 0.0001 -0.0000 2.2684
H -0.0001 0.0000 -0.0007
H 0.0002 0.0004 2.2683
H -0.0002 0.0001 -0.0004
H -0.0001 0.0002 2.2686
H -0.0004 0.0003 0.0003
H -0.0001 0.0002 2.2682
H 0.0006 0.0000 0.0001
H -0.0003 -0.0003 2.2686
H -0.0002 -0.0002 0.0002
H -0.0002 0.0003 2.2682
H -0.0001 -0.0001 -0.0001
H 0.0001 -0.0001 2.2683
H 0.0000 -0.0004 -0.0003
H -0.0002 0.0000 2.2684
H -0.0002 -0.0005 0.0000
H 0.0000 -0.0000 2.2684
H 0.0001 -0.0000 -0.0000
H 0.0002 0.0000 2.2684
H -0.0005 -0.0000 -0.0001
H 0.0002 -0.0003 2.2688
H 0.0001 0.0003 -0.0000
H -0.0002 0.0003 2.2686
H -0.0001 0.0001 -0.0003
H 0.0001 -0.0004 2.2684
H 0.0003 0.0001 -0.0001
H 0.0002 0.0003 2.2683
H -0.0002 0.0001 0.0001
H 0.0002 -0.0002 2.2684
H 0.0003 0.0002 0.0001
H -0.0002 -0.0001 2.2683
H -0.0003 0.0002 0.0002
H 0.0000 0.0000 2.2682
H 0.0001 0.0001 -0.0002
H 0.0001 -0.0002 2.2686
60
Step 3
H -0.0000 -0.0003 -0.0000
H -0.0001 0.0005 2.2678
H 0.0013 0.0003 0.0002
H 0.0006 -0.0004 2.2685
H -0.0004 0.0009 0.0001
H 0.0005 0.0003 2.2691
H 0.0004 -0.0003 -0.0007
H 0.0008 -0.0004 2.2683
H -0.0002 -0.0000 -0.0000
H 0.0010 -0.0001 2.2677
H 0.0001 -0.0001 -0.0004
H -0.0005 -0.0000 2.2687
H 0.0002 0.0007 0.0002
H -0.0008 0.0002 2.2680
H -0.0007 0.0000 0.0003
H -0.0005 0.0007 2.2682
H 0.0003 -0.0004 -0.0002
H -0.0001 -0.0001 2.2685
H 0.0000 0.0007 0.0001
H 0.0012 -0.0004 2.2688
H -0.0002 0.0000 0.0011
H -0.0005 -0.0007 2.2687
H 0.0001 0.0001 -0.0003
H 0.0001 0.0006 2.2678
H -0.0004 -0.0002 0.0001
H 0.0001 -0.0000 2.2683
H -0.0002 0.0001 -0.0015
H 0.0004 0.0007 2.2682
H -0.0005 0.0001 -0.0007
H -0.0001 0.0005 2.2687
H -0.0008 0.0006 0.0006
H -0.0001 0.0003 2.2679
H 0.0012 0.0000 0.0002
H -0.0005 -0.0006 2.2688
H -0.0004 -0.0004 0.0004
H -0.0003 0.0006 2.2680
H -0.0003 -0.0003 -0.0002
H 0.0002 -0.0002 2.2683
H 0.0000 -0.0008 -0.0006
H -0.0005 0.0001 2.2684
H -0.0005 -0.0009 0.0000
H 0.0001 -0.0000 2.2684
H 0.0002 -0.0001 -0.0000
H 0.0004 0.0000 2.2684
H -0.0010 -0.0000 -0.0002
H 0.0004 -0.0007 2.2692
H 0.0001 0.0006 -0.0000
H -0.0004 0.0005 2.2688
H -0.0001 0.0002 -0.0007
H 0.0003 -0.0007 2.2683
H 0.0005 0.0002 -0.0003
H 0.0005 0.0006 2.2683
H -0.0004 0.0001 0.0003
H 0.0004 -0.0003 2.2683
H 0.0006 0.0004 0.0001
H -0.0003 -0.0002 2.2681
H -0.0006 0.0004 0.0003
H 0.0001 0.0000 2.2680
H 0.0003 0.0001 -0.0004
H 0.0002 -0.0004 2.2687
60
Step 4
H -0.0000 -0.0004 -0.0000
H -0.0001 0.0008 2.2675
H 0.0020 0.0005 0.0003
H 0.0008 -0.0006 2.2685
H -0.0006 0.0014 0.0001
H 0.0007 0.0005 2.2694
H 0.0006 -0.0005 -0.0010
H 0.0013 -0.0006 2.2683
H -0.0003 -0.0001 -0.0000
H 0.0015 -0.0002 2.2673
H 0.0001 -0.0002 -0.0006
H -0.0008 -0.0000 2.2688
H 0.0004 0.0011 0.0003
H -0.0012 0.0003 2.2679
H -0.0010 0.0000 0.0005
H -0.0007 0.0010 2.2681
H 0.0004 -0.0006 -0.0003
H -0.0002 -0.0002 2.2686
H 0.0000 0.0010 0.0002
H 0.0017 -0.0006 2.2689
H -0.0002 0.0001 0.0017
H -0.0008 -0.0010 2.2688
H 0.0002 0.0002 -0.0005
H 0.0001 0.0008 2.2674
H -0.0007 -0.0003 0.0002
H 0.0002 -0.0000 2.2682
H -0.0004 0.0001 -0.0022
H 0.0006 0.0011 2.2680
H -0.0007 0.0002 -0.0011
H -0.0002 0.0007 2.2688
H -0.0012 0.0009 0.0009
H -0.0002 0.0005 2.2676
H 0.0019 0.0000 0.0003
H -0.0008 -0.0009 2.2690
H -0.0006 -0.0006 0.0005
H -0.0005 0.0008 2.2678
H -0.0004 -0.0004 -0.0002
H 0.0003 -0.0003 2.2682
H 0.0000 -0.0012 -0.0009
H -0.0007 0.0001 2.2684
H -0.0007 -0.0014 0.0000
H 0.0001 -0.0000 2.2683
H 0.0004 -0.0001 -0.0000
H 0.0007 0.0000 2.2683
H -0.0016 -0.0000 -0.0003
H 0.0007 -0.0010 2.2696
H 0.0002 0.0009 -0.0000
H -0.0006 0.0008 2.2690
H -0.0002 0.0002 -0.0010
H 0.0004 -0.0011 2.2683
H 0.0008 0.0003 -0.0004
H 0.0007 0.0008 2.2682
H -0.0005 0.0002 0.0004
H 0.0006 -0.0005 2.2683
H 0.0008 0.0006 0.0002
H -0.0005 -0.0003 2.2679
H -0.0008 0.0006 0.0005
H 0.0001 0.0000 2.2678
H 0.0004 0.0002 -0.0006
H 0.0003 -0.0005 2.2689
60
Step 5
H -0.0001 -0.0006 -0.0000
H -0.0001 0.0011 2.2672
H 0.0027 0.0006 0.0004
H 0.0011 -0.0008 2.2685
H -0.0008 0.0019 0.0002
H 0.0009 0.0007 2.2698
H 0.0008 -0.0007 -0.0014
H 0.0017 -0.0007 2.2682
H -0.0004 -0.0001 -0.0000
H 0.0020 -0.0002 2.2669
H 0.0002 -0.0002 -0.0008
H -0.0010 -0.0001 2.2689
H 0.0005 0.0015 0.0004
H -0.0016 0.0005 2.2677
H -0.0013 0.0000 0.0007
H -0.0010 0.0014 2.2679
H 0.0005 -0.0008 -0.0004
H -0.0002 -0.0002 2.2686
H 0.0001 0.0014 0.0003
H 0.0023 -0.0008 2.2691
H -0.0003 0.0001 0.0023
H -0.0010 -0.0013 2.2689
H 0.0002 0.0003 -0.0006
H 0.0001 0.0011 2.2671
H -0.0009 -0.0005 0.0003
H 0.0002 -0.0000 2.2682
H -0.0005 0.0002 -0.0029
H 0.0008 0.0015 2.2679
H -0.0009 0.0003 -0.0014
H -0.0002 0.0009 2.2690
H -0.0015 0.0012 0.0012
H -0.0002 0.0007 2.2673
H 0.0025 0.0000 0.0005
H -0.0010 -0.0012 2.2692
H -0.0007 -0.0008 0.0007
H -0.0007 0.0011 2.2676
H -0.0005 -0.0006 -0.0003
H 0.0004 -0.0005 2.2681
H 0.0000 -0.0016 -0.0011
H -0.0010 0.0001 2.2684
H -0.0009 -0.0019 0.0000
H 0.0002 -0.0000 2.2683
H 0.0005 -0.0001 -0.0000
H 0.0009 0.0000 2.2683
H -0.0021 -0.0001 -0.0003
H 0.0009 -0.0013 2.2700
H 0.0002 0.0012 -0.0001
H -0.0008 0.0011 2.2692
H -0.0002 0.0003 -0.0013
H 0.0006 -0.0014 2.2682
H 0.0010 0.0005 -0.0005
H 0.0010 0.0011 2.2681
H -0.0007 0.0003 0.0006
H 0.0009 -0.0007 2.2682
H 0.0011 0.0008 0.0002
H -0.0007 -0.0004 2.2677
H -0.0011 0.0008 0.0007
H 0.0002 0.0000 2.2676
H 0.0006 0.0002 -0.0008
H 0.0004 -0.0007 2.2690
60
Step 6
H -0.0001 -0.0007 0.0000
H -0.0002 0.0014 2.2669
H 0.0034 0.0008 0.0005
H 0.0014 -0.0010 2.2685
H -0.0010 0.0024 0.0002
H 0.0012 0.0009 2.2701
H 0.0010 -0.0008 -0.0017
H 0.0021 -0.0009 2.2681
H -0.0006 -0.0001 -0.0000
H 0.0025 -0.0003 2.2665
H 0.0002 -0.0003 -0.0010
H -0.0013 -0.0001 2.2691
H 0.0006 0.0019 0.0005
H -0.0020 0.0006 2.2675
H -0.0016 0.0000 0.0008
H -0.0012 0.0017 2.2678
H 0.0006 -0.0010 -0.0005
H -0.0003 -0.0003 2.2686
H 0.0001 0.0017 0.0004
H 0.0029 -0.0009 2.2693
H -0.0004 0.0001 0.0029
H -0.0013 -0.0017 2.2690
H 0.0003 0.0003 -0.0007
H 0.0002 0.0014 2.2668
H -0.0011 -0.0006 0.0004
H 0.0003 -0.0000 2.2681
H -0.0006 0.0002 -0.0036
H 0.0010 0.0018 2.2677
H -0.0012 0.0004 -0.0018
H -0.0003 0.0012 2.2691
H -0.0019 0.0016 0.0015
H -0.0003 0.0009 2.2671
H 0.0031 0.0000 0.0006
H -0.0013 -0.0015 2.2694
H -0.0009 -0.0010 0.0009
H -0.0008 0.0014 2.2674
H -0.0006 -0.0007 -0.0004
H 0.0006 -0.0006 2.2680
H 0.0000 -0.0020 -0.0014
H -0.0012 0.0002 2.2684
H -0.0012 -0.0024 0.0001
H 0.0002 -0.0000 2.2682
H 0.0006 -0.0002 -0.0000
H 0.0011 0.0000 2.2683
H -0.0026 -0.0001 -0.0004
H 0.0011 -0.0017 2.2704
H 0.0003 0.0016 -0.0001
H -0.0010 0.0013 2.2694
H -0.0003 0.0004 -0.0016
H 0.0007 -0.0018 2.2682
H 0.0013 0.0006 -0.0006
H 0.0012 0.0014 2.2680
H -0.0009 0.0003 0.0007
H 0.0011 -0.0009 2.2681
H 0.0014 0.0010 0.0003
H -0.0009 -0.0005 2.2675
H -0.0014 0.0010 0.0008
H 0.0002 0.0000 2.2674
H 0.0007 0.0003 -0.0010
H 0.0005 -0.0009 2.2691
60
Step 7
H -0.0001 -0.0009 0.0000
H -0.0002 0.0016 2.2666
H 0.0040 0.0010 0.0005
H 0.0017 -0.0012 2.2685
H -0.0012 0.0028 0.0003
H 0.0014 0.0010 2.2704
H 0.0012 -0.0010 -0.0021
H 0.0025 -0.0011 2.2681
H -0.0007 -0.0001 -0.0000
H 0.0030 -0.0003 2.2661
H 0.0003 -0.0003 -0.0012
H -0.0015 -0.0001 2.2692
H 0.0007 0.0022 0.0006
H -0.0024 0.0007 2.2673
H -0.0020 0.0001 0.0010
H -0.0015 0.0021 2.2677
H 0.0008 -0.0012 -0.0006
H -0.0004 -0.0003 2.2687
H 0.0001 0.0021 0.0005
H 0.0035 -0.0011 2.2694
H -0.0005 0.0001 0.0035
H -0.0016 -0.0020 2.2691
H 0.0003 0.0004 -0.0009
H 0.0002 0.0017 2.2664
H -0.0013 -0.0007 0.0005
H 0.0003 -0.0000 2.2680
H -0.0007 0.0003 -0.0043
H 0.0012 0.0022 2.2676
H -0.0014 0.0004 -0.0021
H -0.0004 0.0014 2.2692
H -0.0023 0.0019 0.0018
H -0.0003 0.0010 2.2668
H 0.0037 0.0000 0.0007
H -0.0015 -0.0018 2.2696
H -0.0011 -0.0012 0.0011
H -0.0010 0.0017 2.2672
H -0.0008 -0.0008 -0.0005
H 0.0007 -0.0007 2.2679
H 0.0000 -0.0024 -0.0017
H -0.0015 0.0002 2.2684
H -0.0014 -0.0028 0.0001
H 0.0002 -0.0000 2.2682
H 0.0007 -0.0002 -0.0000
H 0.0013 0.0000 2.2682
H -0.0031 -0.0001 -0.0005
H 0.0013 -0.0020 2.2708
H 0.0003 0.0019 -0.0001
H -0.0011 0.0016 2.2696
H -0.0003 0.0005 -0.0019
H 0.0009 -0.0022 2.2681
H 0.0015 0.0007 -0.0007
H 0.0014 0.0017 2.2679
H -0.0011 0.0004 0.0009
H 0.0013 -0.0010 2.2681
H 0.0017 0.0012 0.0004
H -0.0010 -0.0006 2.2673
H -0.0017 0.0012 0.0010
H 0.0003 0.0000 2.2672
H 0.0009 0.0003 -0.0011
H 0.0006 -0.0011 2.2693
60
Step 8
H -0.0001 -0.0010 0.0000
H -0.0003 0.0019 2.2663
H 0.0047 0.0011 0.0006
H 0.0019 -0.0014 2.2685
H -0.0014 0.0033 0.0003
H 0.0016 0.0012 2.2707
H 0.0014 -0.0012 -0.0024
H 0.0030 -0.0013 2.2680
H -0.0008 -0.0001 0.0000
H 0.0035 -0.0004 2.2657
H 0.0003 -0.0004 -0.0014
H -0.0018 -0.0001 2.2693
H 0.0009 0.0026 0.0007
H -0.0028 0.0008 2.2671
H -0.0023 0.0001 0.0012
H -0.0017 0.0024 2.2675
H 0.0009 -0.0014 -0.0007
H -0.0004 -0.0004 2.2687
H 0.0001 0.0024 0.0005
H 0.0041 -0.0013 2.2696
H -0.0006 0.0001 0.0041
H -0.0018 -0.0023 2.2693
H 0.0004 0.0005 -0.0010
H 0.0002 0.0019 2.2661
H -0.0015 -0.0008 0.0006
H 0.0004 -0.0000 2.2679
H -0.0008 0.0003 -0.0050
H 0.0014 0.0025 2.2674
H -0.0016 0.0005 -0.0025
H -0.0004 0.0016 2.2693
H -0.0027 0.0022 0.0021
H -0.0004 0.0012 2.2665
H 0.0043 0.0000 0.0008
H -0.0018 -0.0021 2.2697
H -0.0013 -0.0014 0.0013
H -0.0012 0.0020 2.2670
H -0.0009 -0.0010 -0.0005
H 0.0008 -0.0008 2.2678
H 0.0000 -0.0029 -0.0020
H -0.0017 0.0002 2.2684
H -0.0016 -0.0033 0.0001
H 0.0003 -0.0001 2.2681
H 0.0008 -0.0002 -0.0000
H 0.0015 0.0001 2.2682
H -0.0036 -0.0001 -0.0006
H 0.0016 -0.0023 2.2711
H 0.0004 0.0022 -0.0001
H -0.0013 0.0019 2.2698
H -0.0004 0.0006 -0.0023
H 0.0010 -0.0025 2.2680
H 0.0018 0.0008 -0.0008
H 0.0017 0.0019 2.2678
H -0.0012 0.0005 0.0010
H 0.0015 -0.0012 2.2680
H 0.0020 0.0014 0.0005
H -0.0012 -0.0007 2.2671
H -0.0020 0.0013 0.0012
H 0.0003 0.0000 2.2670
H 0.0010 0.0004 -0.0013
H 0.0007 -0.0012 2.2694
60
Step 9
H -0.0001 -0.0012 0.0000
H -0.0003 0.0022 2.2660
H 0.0054 0.0013 0.0008
H 0.0022 -0.0016 2.2685
H -0.0016 0.0038 0.0004
H 0.0019 0.0014 2.2710
H 0.0016 -0.0014 -0.0027
H 0.0034 -0.0015 2.2679
H -0.0009 -0.0002 0.0000
H 0.0040 -0.0004 2.2653
H 0.0003 -0.0004 -0.0016
H -0.0021 -0.0001 2.2694
H 0.0010 0.0030 0.0008
H -0.0032 0.0009 2.2668
H -0.0026 0.0001 0.0014
H -0.0019 0.0027 2.2674
H 0.0010 -0.0016 -0.0007
H -0.0005 -0.0004 2.2687
H 0.0001 0.0028 0.0006
H 0.0047 -0.0015 2.2697
H -0.0007 0.0002 0.0046
H -0.0021 -0.0027 2.2694
H 0.0004 0.0005 -0.0011
H 0.0002 0.0022 2.2658
H -0.0018 -0.0009 0.0007
H 0.0004 -0.0000 2.2678
H -0.0009 0.0003 -0.0057
H 0.0016 0.0029 2.2672
H -0.0019 0.0006 -0.0028
H -0.0005 0.0019 2.2695
H -0.0031 0.0025 0.0025
H -0.0004 0.0014 2.2662
H 0.0049 0.0000 0.0010
H -0.0020 -0.0023 2.2699
H -0.0015 -0.0016 0.0015
H -0.0013 0.0023 2.2668
H -0.0010 -0.0011 -0.0006
H 0.0009 -0.0009 2.2677
H 0.0000 -0.0033 -0.0022
H -0.0020 0.0003 2.2684
H -0.0019 -0.0038 0.0001
H 0.0003 -0.0001 2.2681
H 0.0010 -0.0003 -0.0000
H 0.0018 0.0001 2.2682
H -0.0041 -0.0001 -0.0006
H 0.0018 -0.0027 2.2715
H 0.0004 0.0025 -0.0001
H -0.0015 0.0021 2.2700
H -0.0005 0.0006 -0.0026
H 0.0011 -0.0029 2.2680
H 0.0020 0.0009 -0.0009
H 0.0019 0.0022 2.2677
H -0.0014 0.0005 0.0012
H 0.0017 -0.0014 2.2679
H 0.0022 0.0016 0.0005
H -0.0014 -0.0008 2.2669
H -0.0023 0.0015 0.0014
H 0.0004 0.0000 2.2668
H 0.0012 0.0004 -0.0015
H 0.0008 -0.0014 2.2695
60
Step 10
H -0.0001 -0.0013 0.0001
H -0.0003 0.0025 2.2656
H 0.0060 0.0014 0.0009
H 0.0025 -0.0018 2.2685
H -0.0018 0.0042 0.0005
H 0.0021 0.0016 2.2714
H 0.0018 -0.0015 -0.0031
H 0.0038 -0.0017 2.2679
H -0.0010 -0.0002 0.0000
H 0.0045 -0.0005 2.2649
H 0.0004 -0.0005 -0.0018
H -0.0023 -0.0001 2.2695
H 0.0011 0.0034 0.0009
H -0.0036 0.0010 2.2666
H -0.0030 0.0001 0.0015
H -0.0022 0.0031 2.2672
H 0.0011 -0.0018 -0.0008
H -0.0005 -0.0005 2.2687
H 0.0001 0.0031 0.0007
H 0.0052 -0.0017 2.2699
H -0.0007 0.0002 0.0052
H -0.0023 -0.0030 2.2695
H 0.0005 0.0006 -0.0013
H 0.0003 0.0025 2.2654
H -0.0020 -0.0010 0.0007
H 0.0005 -0.0000 2.2678
H -0.0011 0.0004 -0.0064
H 0.0018 0.0033 2.2671
H -0.0021 0.0007 -0.0032
H -0.0006 0.0021 2.2696
H -0.0035 0.0028 0.0028
H -0.0005 0.0015 2.2659
H 0.0056 0.0001 0.0011
H -0.0023 -0.0026 2.2701
H -0.0017 -0.0018 0.0017
H -0.0015 0.0025 2.2666
H -0.0011 -0.0013 -0.0007
H 0.0010 -0.0010 2.2676
H 0.0000 -0.0037 -0.0025
H -0.0022 0.0003 2.2684
H -0.0021 -0.0043 0.0002
H 0.0004 -0.0001 2.2680
H 0.0011 -0.0003 -0.0000
H 0.0020 0.0001 2.2681
H -0.0047 -0.0001 -0.0007
H 0.0020 -0.0030 2.2719
H 0.0005 0.0028 -0.0001
H -0.0017 0.0024 2.2702
H -0.0005 0.0007 -0.0029
H 0.0013 -0.0032 2.2679
H 0.0023 0.0010 -0.0010
H 0.0022 0.0025 2.2676
H -0.0016 0.0006 0.0013
H 0.0019 -0.0016 2.2678
H 0.0025 0.0018 0.0006
H -0.0015 -0.0009 2.2667
H -0.0025 0.0017 0.0015
H 0.0004 0.0000 2.2666
H 0.0013 0.0005 -0.0017
H 0.0009 -0.0016 2.2697
60
Step 11
H -0.0001 -0.0014 0.0001
H -0.0004 0.0027 2.2653
H 0.0067 0.0016 0.0010
H 0.0028 -0.0020 2.2685
H -0.0019 0.0047 0.0005
H 0.0023 0.0017 2.2717
H 0.0020 -0.0017 -0.0034
H 0.0042 -0.0018 2.2678
H -0.0011 -0.0002 0.0000
H 0.0050 -0.0005 2.2645
H 0.0004 -0.0005 -0.0020
H -0.0026 -0.0002 2.2696
H 0.0012 0.0037 0.0010
H -0.0040 0.0012 2.2664
H -0.0033 0.0001 0.0017
H -0.0024 0.0034 2.2671
H 0.0013 -0.0019 -0.0009
H -0.0006 -0.0005 2.2687
H 0.0001 0.0034 0.0008
H 0.0058 -0.0019 2.2700
H -0.0008 0.0002 0.0058
H -0.0026 -0.0033 2.2696
H 0.0006 0.0007 -0.0014
H 0.0003 0.0028 2.2651
H -0.0022 -0.0011 0.0008
H 0.0005 -0.0000 2.2677
H -0.0012 0.0004 -0.0072
H 0.0021 0.0036 2.2669
H -0.0023 0.0007 -0.0035
H -0.0006 0.0024 2.2697
H -0.0038 0.0031 0.0031
H -0.0006 0.0017 2.2656
H 0.0062 0.0001 0.0012
H -0.0026 -0.0029 2.2703
H -0.0018 -0.0020 0.0019
H -0.0017 0.0028 2.2664
H -0.0013 -0.0014 -0.0007
H 0.0011 -0.0012 2.2675
H 0.0000 -0.0041 -0.0028
H -0.0025 0.0003 2.2683
H -0.0023 -0.0047 0.0002
H 0.0004 -0.0001 2.2679
H 0.0012 -0.0003 -0.0000
H 0.0022 0.0001 2.2681
H -0.0052 -0.0001 -0.0008
H 0.0022 -0.0033 2.2722
H 0.0005 0.0031 -0.0001
H -0.0019 0.0027 2.2703
H -0.0006 0.0008 -0.0032
H 0.0014 -0.0036 2.2678
H 0.0025 0.0011 -0.0011
H 0.0024 0.0028 2.2675
H -0.0018 0.0007 0.0015
H 0.0021 -0.0017 2.2677
H 0.0028 0.0020 0.0007
H -0.0017 -0.0010 2.2665
H -0.0028 0.0019 0.0017
H 0.0005 0.0000 2.2664
H 0.0015 0.0005 -0.0019
H 0.0010 -0.0018 2.2698
60
Step 12
H -0.0001 -0.0016 0.0001
H -0.0004 0.0030 2.2650
H 0.0074 0.0018 0.0011
H 0.0030 -0.0022 2.2685
H -0.0021 0.0052 0.0006
H 0.0026 0.0019 2.2720
H 0.0022 -0.0019 -0.0037
H 0.0046 -0.0020 2.2677
H -0.0012 -0.0002 0.0001
H 0.0055 -0.0006 2.2641
H 0.0005 -0.0006 -0.0022
H -0.0028 -0.0002 2.2697
H 0.0014 0.0041 0.0011
H -0.0044 0.0013 2.2662
H -0.0036 0.0001 0.0019
H -0.0027 0.0038 2.2669
H 0.0014 -0.0021 -0.0010
H -0.0007 -0.0006 2.2688
H 0.0001 0.0038 0.0009
H 0.0064 -0.0021 2.2702
H -0.0009 0.0002 0.0064
H -0.0029 -0.0037 2.2697
H 0.0006 0.0007 -0.0015
H 0.0003 0.0030 2.2647
H -0.0024 -0.0012 0.0009
H 0.0006 -0.0000 2.2676
H -0.0013 0.0005 -0.0079
H 0.0023 0.0040 2.2668
H -0.0026 0.0008 -0.0038
H -0.0007 0.0026 2.2698
H -0.0042 0.0034 0.0034
H -0.0006 0.0019 2.2653
H 0.0068 0.0001 0.0014
H -0.0028 -0.0032 2.2704
H -0.0020 -0.0023 0.0021
H -0.0018 0.0031 2.2662
H -0.0014 -0.0016 -0.0008
H 0.0012 -0.0013 2.2673
H 0.0000 -0.0045 -0.0030
H -0.0027 0.0004 2.2683
H -0.0026 -0.0052 0.0002
H 0.0004 -0.0001 2.2679
H 0.0013 -0.0004 -0.0000
H 0.0024 0.0001 2.2680
H -0.0057 -0.0001 -0.0008
H 0.0025 -0.0037 2.2726
H 0.0006 0.0034 -0.0000
H -0.0021 0.0029 2.2705
H -0.0006 0.0009 -0.0035
H 0.0016 -0.0040 2.2678
H 0.0028 0.0013 -0.0012
H 0.0026 0.0031 2.2674
H -0.0019 0.0007 0.0017
H 0.0023 -0.0019 2.2677
H 0.0031 0.0022 0.0008
H -0.0019 -0.0011 2.2663
H -0.0031 0.0021 0.0019
H 0.0005 0.0000 2.2661
H 0.0016 0.0006 -0.0020
H 0.0012 -0.0019 2.2699
60
Step 13
H -0.0002 -0.0017 0.0001
H -0.0004 0.0033 2.2647
H 0.0080 0.0019 0.0012
H 0.0033 -0.0024 2.2685
H -0.0023 0.0057 0.0007
H 0.0028 0.0021 2.2723
H 0.0024 -0.0020 -0.0040
H 0.0051 -0.0022 2.2676
H -0.0013 -0.0003 0.0001
H 0.0060 -0.0006 2.2637
H 0.0005 -0.0006 -0.0023
H -0.0031 -0.0002 2.2698
H 0.0015 0.0045 0.0012
H -0.0048 0.0014 2.2660
H -0.0039 0.0001 0.0021
H -0.0029 0.0041 2.2668
H 0.0015 -0.0023 -0.0010
H -0.0007 -0.0006 2.2688
H 0.0002 0.0041 0.0010
H 0.0070 -0.0023 2.2703
H -0.0010 0.0003 0.0070
H -0.0031 -0.0040 2.2698
H 0.0007 0.0008 -0.0017
H 0.0004 0.0033 2.2643
H -0.0027 -0.0014 0.0010
H 0.0006 -0.0000 2.2675
H -0.0014 0.0005 -0.0085
H 0.0025 0.0044 2.2666
H -0.0028 0.0009 -0.0042
H -0.0007 0.0028 2.2699
H -0.0046 0.0037 0.0038
H -0.0007 0.0021 2.2650
H 0.0074 0.0001 0.0015
H -0.0031 -0.0035 2.2706
H -0.0022 -0.0025 0.0023
H -0.0020 0.0034 2.2659
H -0.0015 -0.0017 -0.0008
H 0.0013 -0.0014 2.2672
H 0.0000 -0.0049 -0.0033
H -0.0030 0.0004 2.2683
H -0.0028 -0.0057 0.0003
H 0.0005 -0.0001 2.2678
H 0.0014 -0.0004 0.0000
H 0.0026 0.0001 2.2679
H -0.0062 -0.0002 -0.0009
H 0.0027 -0.0040 2.2730
H 0.0006 0.0037 -0.0000
H -0.0023 0.0032 2.2707
H -0.0007 0.0010 -0.0038
H 0.0017 -0.0043 2.2677
H 0.0031 0.0014 -0.0013
H 0.0029 0.0033 2.2673
H -0.0021 0.0008 0.0018
H 0.0026 -0.0021 2.2676
H 0.0034 0.0024 0.0009
H -0.0020 -0.0012 2.2661
H -0.0034 0.0023 0.0021
H 0.0006 0.0001 2.2659
H 0.0017 0.0007 -0.0022
H 0.0013 -0.0021 2.2700
60
Step 14
H -0.0002 -0.0019 0.0001
H -0.0005 0.0035 2.2643
H 0.0087 0.0021 0.0013
H 0.0036 -0.0026 2.2685
H -0.0025 0.0061 0.0007
H 0.0030 0.0023 2.2726
H 0.0026 -0.0022 -0.0043
H 0.0055 -0.0024 2.2675
H -0.0014 -0.0003 0.0001
H 0.0065 -0.0007 2.2633
H 0.0006 -0.0007 -0.0025
H -0.0034 -0.0002 2.2699
H 0.0016 0.0048 0.0014
H -0.0052 0.0015 2.2658
H -0.0043 0.0001 0.0023
H -0.0032 0.0044 2.2666
H 0.0016 -0.0025 -0.0011
H -0.0008 -0.0007 2.2688
H 0.0002 0.0045 0.0011
H 0.0076 -0.0024 2.2704
H -0.0011 0.0003 0.0076
H -0.0034 -0.0043 2.2699
H 0.0007 0.0009 -0.0018
H 0.0004 0.0036 2.2640
H -0.0029 -0.0015 0.0012
H 0.0007 -0.0000 2.2674
H -0.0015 0.0006 -0.0092
H 0.0027 0.0047 2.2664
H -0.0031 0.0009 -0.0045
H -0.0008 0.0031 2.2700
H -0.0050 0.0041 0.0041
H -0.0007 0.0022 2.2647
H 0.0080 0.0001 0.0017
H -0.0033 -0.0038 2.2708
H -0.0024 -0.0027 0.0026
H -0.0022 0.0037 2.2657
H -0.0016 -0.0018 -0.0009
H 0.0014 -0.0015 2.2671
H 0.0000 -0.0053 -0.0035
H -0.0032 0.0004 2.2682
H -0.0030 -0.0062 0.0003
H 0.0005 -0.0001 2.2677
H 0.0016 -0.0004 0.0000
H 0.0029 0.0001 2.2679
H -0.0067 -0.0002 -0.0009
H 0.0029 -0.0044 2.2733
H 0.0007 0.0040 -0.0000
H -0.0025 0.0035 2.2709
H -0.0007 0.0010 -0.0041
H 0.0019 -0.0047 2.2676
H 0.0033 0.0015 -0.0014
H 0.0031 0.0036 2.2671
H -0.0023 0.0009 0.0020
H 0.0028 -0.0023 2.2675
H 0.0036 0.0026 0.0010
H -0.0022 -0.0013 2.2659
H -0.0037 0.0025 0.0023
H 0.0006 0.0001 2.2657
H 0.0019 0.0007 -0.0024
H 0.0014 -0.0023 2.2701
60
Step 15
H -0.0002 -0.0020 0.0002
H -0.0005 0.0038 2.2640
H 0.0094 0.0022 0.0014
H 0.0039 -0.0028 2.2685
H -0.0027 0.0066 0.0008
H 0.0033 0.0024 2.2729
H 0.0028 -0.0024 -0.0047
H 0.0059 -0.0026 2.2674
H -0.0015 -0.0003 0.0001
H 0.0070 -0.0007 2.2629
H 0.0006 -0.0007 -0.0027
H -0.0036 -0.0002 2.2700
H 0.0017 0.0052 0.0015
H -0.0056 0.0016 2.2655
H -0.0046 0.0001 0.0025
H -0.0034 0.0048 2.2665
H 0.0018 -0.0027 -0.0012
H -0.0009 -0.0007 2.2688
H 0.0002 0.0048 0.0012
H 0.0081 -0.0026 2.2706
H -0.0011 0.0003 0.0082
H -0.0036 -0.0047 2.2699
H 0.0008 0.0009 -0.0019
H 0.0004 0.0039 2.2636
H -0.0031 -0.0016 0.0013
H 0.0007 -0.0000 2.2673
H -0.0016 0.0006 -0.0099
H 0.0029 0.0051 2.2662
H -0.0033 0.0010 -0.0048
H -0.0009 0.0033 2.2701
H -0.0054 0.0044 0.0044
H -0.0008 0.0024 2.2644
H 0.0086 0.0001 0.0018
H -0.0036 -0.0041 2.2709
H -0.0026 -0.0029 0.0028
H -0.0023 0.0040 2.2655
H -0.0018 -0.0020 -0.0009
H 0.0015 -0.0016 2.2670
H 0.0000 -0.0057 -0.0038
H -0.0035 0.0005 2.2682
H -0.0033 -0.0066 0.0004
H 0.0005 -0.0001 2.2677
H 0.0017 -0.0005 0.0000
H 0.0031 0.0001 2.2678
H -0.0073 -0.0002 -0.0010
H 0.0031 -0.0047 2.2737
H 0.0007 0.0044 0.0000
H -0.0027 0.0037 2.2710
H -0.0008 0.0011 -0.0044
H 0.0020 -0.0051 2.2675
H 0.0036 0.0016 -0.0015
H 0.0034 0.0039 2.2670
H -0.0025 0.0009 0.0022
H 0.0030 -0.0024 2.2674
H 0.0039 0.0028 0.0011
H -0.0024 -0.0014 2.2657
H -0.0040 0.0027 0.0025
H 0.0007 0.0001 2.2654
H 0.0020 0.0008 -0.0025
H 0.0015 -0.0025 2.2702
60
Step 16
H -0.0002 -0.0022 0.0002
H -0.0005 0.0041 2.2637
H 0.0101 0.0024 0.0016
H 0.0041 -0.0030 2.2685
H -0.0029 0.0071 0.0009
H 0.0035 0.0026 2.2732
H 0.0030 -0.0025 -0.0050
H 0.0063 -0.0028 2.2674
H -0.0017 -0.0003 0.0002
H 0.0075 -0.0008 2.2625
H 0.0006 -0.0008 -0.0029
H -0.0039 -0.0002 2.2701
H 0.0019 0.0056 0.0016
H -0.0060 0.0017 2.2653
H -0.0049 0.0001 0.0027
H -0.0036 0.0051 2.2663
H 0.0019 -0.0029 -0.0012
H -0.0009 -0.0008 2.2688
H 0.0002 0.0052 0.0013
H 0.0087 -0.0028 2.2707
H -0.0012 0.0003 0.0089
H -0.0039 -0.0050 2.2700
H 0.0008 0.0010 -0.0020
H 0.0005 0.0041 2.2633
H -0.0033 -0.0017 0.0014
H 0.0008 -0.0000 2.2672
H -0.0018 0.0007 -0.0106
H 0.0031 0.0054 2.2661
H -0.0035 0.0011 -0.0051
H -0.0009 0.0035 2.2702
H -0.0058 0.0047 0.0048
H -0.0008 0.0026 2.2641
H 0.0093 0.0001 0.0020
H -0.0038 -0.0044 2.2711
H -0.0028 -0.0031 0.0030
H -0.0025 0.0042 2.2653
H -0.0019 -0.0021 -0.0010
H 0.0017 -0.0017 2.2669
H 0.0000 -0.0061 -0.0040
H -0.0037 0.0005 2.2682
H -0.0035 -0.0071 0.0004
H 0.0006 -0.0001 2.2676
H 0.0018 -0.0005 0.0001
H 0.0033 0.0001 2.2678
H -0.0078 -0.0002 -0.0010
H 0.0034 -0.0050 2.2740
H 0.0008 0.0047 0.0000
H -0.0029 0.0040 2.2712
H -0.0009 0.0012 -0.0047
H 0.0021 -0.0054 2.2674
H 0.0038 0.0017 -0.0016
H 0.0036 0.0042 2.2669
H -0.0026 0.0010 0.0024
H 0.0032 -0.0026 2.2673
H 0.0042 0.0030 0.0012
H -0.0026 -0.0015 2.2655
H -0.0042 0.0029 0.0027
H 0.0007 0.0001 2.2652
H 0.0022 0.0008 -0.0027
H 0.0016 -0.0026 2.2704
60
Step 17
H -0.0002 -0.0023 0.0003
H -0.0006 0.0044 2.2633
H 0.0107 0.0026 0.0017
H 0.0044 -0.0032 2.2685
H -0.0031 0.0075 0.0010
H 0.0037 0.0028 2.2735
H 0.0032 -0.0027 -0.0053
H 0.0068 -0.0029 2.2673
H -0.0018 -0.0003 0.0002
H 0.0080 -0.0008 2.2620
H 0.0007 -0.0008 -0.0030
H -0.0041 -0.0003 2.2702
H 0.0020 0.0060 0.0018
H -0.0064 0.0019 2.2651
H -0.0052 0.0002 0.0029
H -0.0039 0.0055 2.2662
H 0.0020 -0.0031 -0.0013
H -0.0010 -0.0009 2.2688
H 0.0002 0.0055 0.0014
H 0.0093 -0.0030 2.2708
H -0.0013 0.0003 0.0095
H -0.0042 -0.0054 2.2701
H 0.0009 0.0011 -0.0021
H 0.0005 0.0044 2.2629
H -0.0035 -0.0018 0.0015
H 0.0008 -0.0000 2.2671
H -0.0019 0.0007 -0.0113
H 0.0033 0.0058 2.2659
H -0.0038 0.0012 -0.0055
H -0.0010 0.0038 2.2703
H -0.0061 0.0050 0.0051
H -0.0009 0.0027 2.2638
H 0.0099 0.0001 0.0021
H -0.0041 -0.0047 2.2712
H -0.0030 -0.0033 0.0032
H -0.0027 0.0045 2.2650
H -0.0020 -0.0023 -0.0010
H 0.0018 -0.0018 2.2667
H 0.0000 -0.0065 -0.0043
H -0.0040 0.0005 2.2681
H -0.0037 -0.0076 0.0005
H 0.0006 -0.0001 2.2675
H 0.0019 -0.0005 0.0001
H 0.0035 0.0001 2.2677
H -0.0083 -0.0002 -0.0011
H 0.0036 -0.0054 2.2744
H 0.0008 0.0050 0.0001
H -0.0030 0.0043 2.2714
H -0.0009 0.0013 -0.0050
H 0.0023 -0.0058 2.2674
H 0.0041 0.0018 -0.0017
H 0.0038 0.0044 2.2668
H -0.0028 0.0011 0.0026
H 0.0034 -0.0028 2.2672
H 0.0045 0.0032 0.0013
H -0.0027 -0.0016 2.2652
H -0.0045 0.0031 0.0029
H 0.0008 0.0001 2.2650
H 0.0023 0.0009 -0.0028
H 0.0017 -0.0028 2.2705
60
Step 18
H -0.0002 -0.0025 0.0003
H -0.0006 0.0046 2.2630
H 0.0114 0.0027 0.0018
H 0.0047 -0.0034 2.2684
H -0.0033 0.0080 0.0011
H 0.0040 0.0030 2.2738
H 0.0034 -0.0029 -0.0056
H 0.0072 -0.0031 2.2672
H -0.0019 -0.0004 0.0002
H 0.0085 -0.0009 2.2616
H 0.0007 -0.0009 -0.0032
H -0.0044 -0.0003 2.2703
H 0.0021 0.0063 0.0019
H -0.0068 0.0020 2.2648
H -0.0056 0.0002 0.0031
H -0.0041 0.0058 2.2660
H 0.0021 -0.0033 -0.0014
H -0.0010 -0.0009 2.2688
H 0.0002 0.0059 0.0015
H 0.0099 -0.0032 2.2710
H -0.0014 0.0004 0.0101
H -0.0044 -0.0057 2.2702
H 0.0009 0.0012 -0.0022
H 0.0005 0.0047 2.2625
H -0.0038 -0.0019 0.0016
H 0.0009 -0.0000 2.2670
H -0.0020 0.0007 -0.0120
H 0.0035 0.0062 2.2657
H -0.0040 0.0012 -0.0058
H -0.0011 0.0040 2.2704
H -0.0065 0.0053 0.0054
H -0.0009 0.0029 2.2635
H 0.0105 0.0001 0.0023
H -0.0043 -0.0050 2.2714
H -0.0031 -0.0035 0.0034
H -0.0028 0.0048 2.2648
H -0.0022 -0.0024 -0.0011
H 0.0019 -0.0020 2.2666
H 0.0000 -0.0069 -0.0045
H -0.0042 0.0006 2.2681
H -0.0040 -0.0081 0.0005
H 0.0007 -0.0001 2.2674
H 0.0020 -0.0006 0.0001
H 0.0038 0.0001 2.2676
H -0.0088 -0.0002 -0.0011
H 0.0038 -0.0057 2.2747
H 0.0009 0.0053 0.0001
H -0.0032 0.0045 2.2715
H -0.0010 0.0013 -0.0053
H 0.0024 -0.0061 2.2673
H 0.0043 0.0019 -0.0018
H 0.0041 0.0047 2.2667
H -0.0030 0.0011 0.0027
H 0.0036 -0.0030 2.2671
H 0.0048 0.0034 0.0014
H -0.0029 -0.0017 2.2650
H -0.0048 0.0033 0.0031
H 0.0008 0.0001 2.2647
H 0.0025 0.0009 -0.0030
H 0.0018 -0.0030 2.2706
60
Step 19
H -0.0002 -0.0026 0.0003
H -0.0007 0.0049 2.2626
H 0.0121 0.0029 0.0019
H 0.0050 -0.0036 2.2684
H -0.0035 0.0085 0.0012
H 0.0042 0.0031 2.2740
H 0.0036 -0.0031 -0.0059
H 0.0076 -0.0033 2.2671
H -0.0020 -0.0004 0.0003
H 0.0090 -0.0009 2.2612
H 0.0008 -0.0009 -0.0034
H -0.0046 -0.0003 2.2703
H 0.0022 0.0067 0.0020
H -0.0072 0.0021 2.2646
H -0.0059 0.0002 0.0033
H -0.0044 0.0062 2.2658
H 0.0023 -0.0035 -0.0014
H -0.0011 -0.0010 2.2688
H 0.0002 0.0062 0.0017
H 0.0105 -0.0034 2.2711
H -0.0015 0.0004 0.0107
H -0.0047 -0.0060 2.2703
H 0.0010 0.0012 -0.0023
H 0.0006 0.0050 2.2622
H -0.0040 -0.0020 0.0017
H 0.0009 -0.0000 2.2669
H -0.0021 0.0008 -0.0127
H 0.0037 0.0065 2.2655
H -0.0042 0.0013 -0.0061
H -0.0011 0.0042 2.2705
H -0.0069 0.0056 0.0058
H -0.0010 0.0031 2.2632
H 0.0111 0.0001 0.0024
H -0.0046 -0.0053 2.2715
H -0.0033 -0.0037 0.0037
H -0.0030 0.0051 2.2645
H -0.0023 -0.0025 -0.0011
H 0.0020 -0.0021 2.2665
H 0.0000 -0.0073 -0.0048
H -0.0045 0.0006 2.2680
H -0.0042 -0.0085 0.0006
H 0.0007 -0.0001 2.2673
H 0.0021 -0.0006 0.0002
H 0.0040 0.0001 2.2676
H -0.0093 -0.0002 -0.0012
H 0.0040 -0.0060 2.2751
H 0.0009 0.0056 0.0001
H -0.0034 0.0048 2.2717
H -0.0010 0.0014 -0.0055
H 0.0026 -0.0065 2.2672
H 0.0046 0.0021 -0.0019
H 0.0043 0.0050 2.2665
H -0.0032 0.0012 0.0029
H 0.0038 -0.0031 2.2670
H 0.0050 0.0036 0.0015
H -0.0031 -0.0018 2.2648
H -0.0051 0.0035 0.0033
H 0.0009 0.0001 2.2645
H 0.0026 0.0010 -0.0031
H 0.0019 -0.0032 2.2707
60
Step 20
H -0.0002 -0.0027 0.0004
H -0.0007 0.0052 2.2623
H 0.0127 0.0031 0.0021
H 0.0052 -0.0038 2.2684
H -0.0037 0.0090 0.0012
H 0.0044 0.0033 2.2743
H 0.0038 -0.0032 -0.0062
H 0.0080 -0.0035 2.2670
H -0.0021 -0.0004 0.0003
H 0.0095 -0.0010 2.2608
H 0.0008 -0.0010 -0.0035
H -0.0049 -0.0003 2.2704
H 0.0024 0.0071 0.0022
H -0.0076 0.0022 2.2644
H -0.0062 0.0002 0.0035
H -0.0046 0.0065 2.2656
H 0.0024 -0.0037 -0.0015
H -0.0012 -0.0010 2.2688
H 0.0003 0.0066 0.0018
H 0.0110 -0.0036 2.2712
H -0.0016 0.0004 0.0113
H -0.0049 -0.0064 2.2704
H 0.0011 0.0013 -0.0024
H 0.0006 0.0052 2.2618
H -0.0042 -0.0021 0.0018
H 0.0010 -0.0000 2.2668
H -0.0022 0.0008 -0.0133
H 0.0039 0.0069 2.2653
H -0.0045 0.0014 -0.0064
H -0.0012 0.0045 2.2706
H -0.0073 0.0059 0.0061
H -0.0010 0.0033 2.2629
H 0.0117 0.0001 0.0026
H -0.0048 -0.0056 2.2717
H -0.0035 -0.0039 0.0039
H -0.0032 0.0054 2.2643
H -0.0024 -0.0027 -0.0011